/*--------------------------------*- C++ -*----------------------------------*\
| =========                 |                                                 |
| \\      /  F ield         | OpenFOAM: The Open Source CFD Toolbox           |
|  \\    /   O peration     | Version:  v2006                                 |
|   \\  /    A nd           | Website:  www.openfoam.com                      |
|    \\/     M anipulation  |                                                 |
\*---------------------------------------------------------------------------*/
FoamFile
{
    version     2.0;
    format      ascii;
    class       volScalarField;
    location    "0";
    object      Cx;
}
// * * * * * * * * * * * * * * * * * * * * * * * * * * * * * * * * * * * * * //

dimensions      [0 1 0 0 0 0 0];


internalField   nonuniform List<scalar> 
80000
(
0.0164841
0.0494523
0.0824204
0.115389
0.148357
0.181325
0.214293
0.247259
0.280222
0.313178
0.346124
0.379054
0.411962
0.444839
0.477676
0.51046
0.543178
0.575814
0.608351
0.640771
0.673054
0.705196
0.737187
0.769027
0.800724
0.832274
0.863688
0.894965
0.926114
0.957148
0.988068
1.01889
1.04961
1.08025
1.11082
1.14132
1.17176
1.20216
1.23251
1.26283
1.29314
1.32343
1.35373
1.38403
1.41435
1.4447
1.47508
1.50548
1.53592
1.56639
1.59688
1.6274
1.65794
1.68851
1.7191
1.74971
1.78033
1.81098
1.84164
1.87232
1.90301
1.93371
1.96443
1.99516
2.0259
2.05664
2.08739
2.11815
2.14891
2.17968
2.21046
2.24124
2.27204
2.30287
2.33371
2.36458
2.39548
2.42641
2.45737
2.48838
2.51943
2.55052
2.58167
2.61286
2.64411
2.67542
2.70679
2.73822
2.76971
2.80127
2.83291
2.86461
2.89639
2.92823
2.96015
2.99213
3.02418
3.05629
3.08846
3.1207
3.15299
3.18534
3.21775
3.2502
3.28271
3.31526
3.34786
3.38051
3.41319
3.44591
3.47867
3.51146
3.54428
3.57712
3.61
3.64289
3.6758
3.70873
3.74168
3.77463
3.80759
3.84093
3.8739
3.9065
3.93946
3.97243
4.0054
4.03837
4.07134
4.10431
4.13728
4.17024
4.20321
4.23618
4.26915
4.30212
4.33509
4.36805
4.40102
4.43399
4.46696
4.49993
4.5329
4.56586
4.59883
4.6318
4.66477
4.69773
4.7307
4.76367
4.79664
4.82961
4.86258
4.89554
4.92851
4.96148
4.99445
5.02742
5.06039
5.09335
5.12632
5.15929
5.19226
5.22523
5.2582
5.29117
5.32413
5.3571
5.39007
5.42304
5.45601
5.48897
5.52194
5.55491
5.58788
5.62085
5.65382
5.68679
5.71975
5.75272
5.78569
5.81866
5.85163
5.8846
5.91756
5.95053
5.9835
6.01647
6.04944
6.08241
6.11538
6.14834
6.18131
6.21428
6.24725
6.28022
6.31318
6.34615
6.37912
6.41209
6.44506
6.47803
6.511
6.54396
6.57693
6.6099
6.64287
6.67584
6.70881
6.74177
6.77474
6.80771
6.84068
6.87365
6.90662
6.93959
6.97255
7.00552
7.03849
7.07146
7.10443
7.13739
7.17036
7.20333
7.2363
7.26927
7.30224
7.3352
7.36817
7.40114
7.43411
7.46708
7.50005
7.53301
7.56598
7.59895
7.63192
7.66488
7.69785
7.73082
7.76379
7.79676
7.82973
7.8627
7.89566
7.92863
7.9616
7.99457
8.02754
8.06051
8.09347
8.12644
8.15941
8.19238
8.22535
8.25832
8.29128
8.32425
8.35722
8.39019
8.42316
8.45613
8.4891
8.52206
8.55503
8.588
8.62097
8.65394
8.6869
8.71987
8.75284
8.78581
8.81878
8.85175
8.88472
8.91768
8.95065
8.98325
9.01622
9.04956
9.08252
9.11547
9.14841
9.18134
9.21426
9.24715
9.28003
9.31287
9.34569
9.37848
9.41124
9.44396
9.47664
9.50929
9.54188
9.57444
9.60694
9.6394
9.67181
9.70416
9.73645
9.76868
9.80086
9.83297
9.86502
9.897
9.92892
9.96076
9.99254
10.0242
10.0559
10.0874
10.1189
10.1504
10.1817
10.213
10.2443
10.2755
10.3066
10.3377
10.3688
10.3998
10.4307
10.4617
10.4926
10.5234
10.5543
10.5851
10.6159
10.6467
10.6775
10.7082
10.739
10.7698
10.8005
10.8313
10.862
10.8927
10.9234
10.9541
10.9848
11.0155
11.0462
11.0768
11.1074
11.138
11.1686
11.1992
11.2297
11.2603
11.2908
11.3212
11.3517
11.3821
11.4125
11.4428
11.4731
11.5034
11.5337
11.564
11.5943
11.6246
11.655
11.6854
11.7158
11.7463
11.7769
11.8075
11.8383
11.8691
11.9
11.931
11.9622
11.9935
12.0249
12.0564
12.0881
12.12
12.152
12.1841
12.2164
12.2488
12.2813
12.314
12.3467
12.3795
12.4123
12.4452
12.4781
12.511
12.544
12.5769
12.6099
12.6429
12.6758
12.7088
12.7418
12.7747
12.8077
12.8407
0.0164833
0.0494498
0.0824162
0.115383
0.14835
0.181316
0.214282
0.247247
0.280208
0.313162
0.346106
0.379035
0.411941
0.444817
0.477652
0.510435
0.543152
0.575787
0.608323
0.640743
0.673026
0.705167
0.737158
0.769
0.800697
0.832248
0.863664
0.894943
0.926093
0.957129
0.988052
1.01887
1.0496
1.08025
1.11082
1.14132
1.17176
1.20216
1.23252
1.26285
1.29316
1.32345
1.35375
1.38406
1.41438
1.44473
1.47512
1.50553
1.53597
1.56644
1.59694
1.62746
1.658
1.68857
1.71916
1.74978
1.78041
1.81105
1.84172
1.8724
1.90309
1.9338
1.96452
1.99525
2.02599
2.05674
2.08749
2.11825
2.14902
2.17979
2.21057
2.24136
2.27216
2.30299
2.33383
2.3647
2.3956
2.42654
2.45751
2.48851
2.51957
2.55066
2.58181
2.61301
2.64426
2.67556
2.70693
2.73837
2.76986
2.80143
2.83306
2.86477
2.89654
2.92839
2.9603
2.99229
3.02433
3.05645
3.08862
3.12086
3.15315
3.1855
3.2179
3.25036
3.28286
3.31542
3.34802
3.38066
3.41334
3.44606
3.47881
3.5116
3.54442
3.57727
3.61014
3.64303
3.67594
3.70887
3.74182
3.77477
3.80772
3.84106
3.87403
3.90662
3.93959
3.97256
4.00552
4.03849
4.07146
4.10442
4.13739
4.17036
4.20332
4.23629
4.26926
4.30222
4.33519
4.36816
4.40112
4.43409
4.46705
4.50002
4.53299
4.56596
4.59892
4.63189
4.66486
4.69782
4.73079
4.76376
4.79672
4.82969
4.86266
4.89562
4.92859
4.96156
4.99453
5.02749
5.06046
5.09342
5.12639
5.15936
5.19233
5.22529
5.25826
5.29122
5.32419
5.35716
5.39013
5.42309
5.45606
5.48902
5.52199
5.55496
5.58792
5.62089
5.65386
5.68682
5.71979
5.75276
5.78572
5.81869
5.85166
5.88462
5.91759
5.95056
5.98352
6.01649
6.04946
6.08243
6.11539
6.14836
6.18132
6.21429
6.24726
6.28023
6.31319
6.34616
6.37912
6.41209
6.44506
6.47803
6.51099
6.54396
6.57692
6.60989
6.64286
6.67582
6.70879
6.74176
6.77472
6.80769
6.84066
6.87362
6.90659
6.93956
6.97252
7.00549
7.03846
7.07142
7.10439
7.13736
7.17032
7.20329
7.23626
7.26922
7.30219
7.33516
7.36813
7.40109
7.43406
7.46702
7.49999
7.53296
7.56592
7.59889
7.63186
7.66482
7.69779
7.73076
7.76373
7.79669
7.82966
7.86262
7.89559
7.92856
7.96153
7.99449
8.02746
8.06042
8.09339
8.12636
8.15933
8.19229
8.22526
8.25822
8.29119
8.32416
8.35712
8.39009
8.42306
8.45602
8.48899
8.52196
8.55492
8.58789
8.62086
8.65383
8.68679
8.71976
8.75272
8.78569
8.81866
8.85163
8.88459
8.91756
8.95052
8.98312
9.01608
9.04942
9.08238
9.11533
9.14828
9.1812
9.21412
9.24701
9.27988
9.31273
9.34555
9.37833
9.41109
9.44381
9.47649
9.50913
9.54173
9.57429
9.60679
9.63924
9.67165
9.704
9.73629
9.76853
9.8007
9.83281
9.86486
9.89685
9.92876
9.96061
9.99238
10.0241
10.0557
10.0873
10.1188
10.1502
10.1816
10.2129
10.2441
10.2753
10.3065
10.3376
10.3686
10.3996
10.4306
10.4615
10.4924
10.5233
10.5542
10.585
10.6158
10.6466
10.6774
10.7081
10.7389
10.7697
10.8004
10.8312
10.8619
10.8926
10.9233
10.9541
10.9847
11.0154
11.0461
11.0767
11.1074
11.138
11.1686
11.1991
11.2297
11.2602
11.2907
11.3212
11.3516
11.382
11.4124
11.4428
11.4731
11.5034
11.5337
11.564
11.5943
11.6246
11.655
11.6854
11.7158
11.7463
11.7769
11.8075
11.8383
11.8691
11.9
11.9311
11.9622
11.9935
12.0249
12.0565
12.0881
12.12
12.152
12.1841
12.2164
12.2488
12.2814
12.314
12.3467
12.3795
12.4123
12.4452
12.4781
12.511
12.544
12.5769
12.6099
12.6429
12.6758
12.7088
12.7418
12.7747
12.8077
12.8407
0.0164824
0.0494472
0.082412
0.115377
0.148342
0.181307
0.214271
0.247234
0.280193
0.313146
0.346089
0.379015
0.411921
0.444795
0.477629
0.51041
0.543125
0.57576
0.608295
0.640714
0.672997
0.705138
0.73713
0.768972
0.80067
0.832222
0.863639
0.89492
0.926073
0.957111
0.988036
1.01886
1.04959
1.08024
1.11081
1.14132
1.17177
1.20217
1.23253
1.26286
1.29317
1.32348
1.35378
1.38409
1.41441
1.44477
1.47516
1.50557
1.53602
1.56649
1.59699
1.62752
1.65807
1.68864
1.71923
1.74985
1.78048
1.81113
1.8418
1.87248
1.90318
1.93389
1.96461
1.99535
2.02609
2.05684
2.0876
2.11836
2.14913
2.1799
2.21068
2.24147
2.27228
2.30311
2.33396
2.36483
2.39573
2.42667
2.45764
2.48865
2.51971
2.5508
2.58195
2.61315
2.6444
2.67571
2.70709
2.73852
2.77002
2.80158
2.83322
2.86492
2.8967
2.92855
2.96046
2.99245
3.02449
3.05661
3.08878
3.12102
3.15331
3.18566
3.21806
3.25052
3.28302
3.31557
3.34817
3.38081
3.41349
3.44621
3.47897
3.51175
3.54457
3.57741
3.61028
3.64318
3.67609
3.70901
3.74195
3.7749
3.80786
3.8412
3.87416
3.90675
3.93972
3.97268
4.00565
4.03861
4.07158
4.10454
4.13751
4.17047
4.20344
4.2364
4.26937
4.30233
4.3353
4.36826
4.40123
4.43419
4.46716
4.50012
4.53309
4.56605
4.59902
4.63198
4.66495
4.69791
4.73088
4.76384
4.79681
4.82977
4.86274
4.8957
4.92867
4.96163
4.9946
5.02756
5.06053
5.09349
5.12646
5.15942
5.19239
5.22535
5.25832
5.29128
5.32425
5.35721
5.39018
5.42314
5.45611
5.48907
5.52204
5.555
5.58797
5.62093
5.6539
5.68686
5.71983
5.75279
5.78576
5.81872
5.85169
5.88465
5.91761
5.95058
5.98355
6.01651
6.04948
6.08244
6.11541
6.14837
6.18134
6.2143
6.24727
6.28023
6.3132
6.34616
6.37913
6.41209
6.44506
6.47802
6.51099
6.54395
6.57692
6.60988
6.64285
6.67581
6.70878
6.74174
6.7747
6.80767
6.84064
6.8736
6.90657
6.93953
6.9725
7.00546
7.03842
7.07139
7.10436
7.13732
7.17029
7.20325
7.23621
7.26918
7.30215
7.33511
7.36808
7.40104
7.434
7.46697
7.49994
7.5329
7.56587
7.59883
7.63179
7.66476
7.69772
7.73069
7.76366
7.79662
7.82959
7.86255
7.89551
7.92848
7.96145
7.99441
8.02738
8.06034
8.0933
8.12627
8.15924
8.1922
8.22517
8.25813
8.29109
8.32406
8.35703
8.38999
8.42296
8.45592
8.48888
8.52185
8.55481
8.58778
8.62075
8.65371
8.68667
8.71964
8.7526
8.78557
8.81853
8.8515
8.88447
8.91743
8.95039
8.98299
9.01595
9.04929
9.08225
9.11519
9.14814
9.18106
9.21397
9.24687
9.27973
9.31258
9.3454
9.37818
9.41094
9.44366
9.47634
9.50898
9.54157
9.57413
9.60663
9.63909
9.67149
9.70384
9.73613
9.76837
9.80054
9.83265
9.8647
9.89669
9.9286
9.96045
9.99223
10.0239
10.0556
10.0871
10.1186
10.1501
10.1814
10.2127
10.244
10.2752
10.3063
10.3374
10.3685
10.3995
10.4305
10.4614
10.4923
10.5232
10.554
10.5849
10.6157
10.6465
10.6772
10.708
10.7388
10.7696
10.8003
10.8311
10.8618
10.8925
10.9233
10.954
10.9847
11.0153
11.046
11.0767
11.1073
11.1379
11.1685
11.1991
11.2296
11.2602
11.2907
11.3211
11.3516
11.382
11.4124
11.4427
11.4731
11.5034
11.5337
11.564
11.5943
11.6246
11.655
11.6854
11.7158
11.7463
11.7769
11.8076
11.8383
11.8691
11.9
11.9311
11.9622
11.9935
12.0249
12.0565
12.0882
12.12
12.152
12.1842
12.2164
12.2489
12.2814
12.314
12.3467
12.3795
12.4124
12.4452
12.4781
12.5111
12.544
12.577
12.6099
12.6429
12.6758
12.7088
12.7418
12.7747
12.8077
12.8407
0.0164815
0.0494446
0.0824077
0.115371
0.148334
0.181297
0.21426
0.247221
0.280179
0.31313
0.346071
0.378996
0.411899
0.444772
0.477604
0.510384
0.543098
0.575732
0.608266
0.640685
0.672967
0.705108
0.737101
0.768943
0.800642
0.832196
0.863614
0.894897
0.926052
0.957092
0.98802
1.01885
1.04958
1.08023
1.11081
1.14132
1.17177
1.20218
1.23254
1.26288
1.29319
1.3235
1.3538
1.38412
1.41445
1.44481
1.4752
1.50562
1.53607
1.56654
1.59705
1.62758
1.65813
1.6887
1.7193
1.74992
1.78056
1.81121
1.84188
1.87257
1.90327
1.93398
1.96471
1.99544
2.02619
2.05694
2.0877
2.11847
2.14924
2.18001
2.2108
2.24159
2.2724
2.30323
2.33409
2.36496
2.39587
2.42681
2.45778
2.48879
2.51985
2.55095
2.5821
2.6133
2.64455
2.67587
2.70724
2.73867
2.77018
2.80174
2.83338
2.86508
2.89686
2.92871
2.96062
2.99261
3.02466
3.05677
3.08894
3.12118
3.15347
3.18582
3.21822
3.25068
3.28318
3.31573
3.34833
3.38097
3.41365
3.44637
3.47912
3.5119
3.54472
3.57756
3.61043
3.64332
3.67623
3.70915
3.74209
3.77504
3.808
3.84133
3.87429
3.90689
3.93985
3.97281
4.00577
4.03874
4.0717
4.10467
4.13763
4.17059
4.20355
4.23652
4.26948
4.30244
4.33541
4.36837
4.40133
4.4343
4.46726
4.50022
4.53319
4.56615
4.59911
4.63208
4.66504
4.698
4.73097
4.76393
4.79689
4.82986
4.86282
4.89578
4.92875
4.96171
4.99467
5.02764
5.0606
5.09356
5.12652
5.15949
5.19245
5.22542
5.25838
5.29134
5.3243
5.35727
5.39023
5.4232
5.45616
5.48912
5.52208
5.55505
5.58801
5.62098
5.65394
5.6869
5.71986
5.75283
5.78579
5.81876
5.85172
5.88468
5.91764
5.95061
5.98357
6.01653
6.0495
6.08246
6.11542
6.14839
6.18135
6.21431
6.24728
6.28024
6.3132
6.34616
6.37913
6.41209
6.44506
6.47802
6.51098
6.54395
6.57691
6.60987
6.64283
6.6758
6.70876
6.74172
6.77469
6.80765
6.84061
6.87358
6.90654
6.93951
6.97247
7.00543
7.03839
7.07136
7.10432
7.13728
7.17025
7.20321
7.23617
7.26914
7.3021
7.33506
7.36803
7.40099
7.43395
7.46691
7.49988
7.53284
7.56581
7.59877
7.63173
7.66469
7.69766
7.73062
7.76359
7.79655
7.82951
7.86247
7.89544
7.9284
7.96137
7.99433
8.02729
8.06025
8.09322
8.12618
8.15915
8.19211
8.22507
8.25803
8.291
8.32396
8.35692
8.38989
8.42285
8.45581
8.48878
8.52174
8.5547
8.58767
8.62063
8.65359
8.68656
8.71952
8.75248
8.78544
8.81841
8.85137
8.88434
8.9173
8.95026
8.98285
9.01582
9.04915
9.08211
9.11505
9.14799
9.18092
9.21383
9.24672
9.27959
9.31243
9.34524
9.37803
9.41078
9.4435
9.47618
9.50882
9.54142
9.57397
9.60647
9.63893
9.67133
9.70368
9.73597
9.7682
9.80038
9.83249
9.86454
9.89652
9.92844
9.96029
9.99207
10.0238
10.0554
10.087
10.1185
10.1499
10.1813
10.2126
10.2438
10.275
10.3062
10.3373
10.3684
10.3994
10.4303
10.4613
10.4922
10.5231
10.5539
10.5847
10.6156
10.6464
10.6771
10.7079
10.7387
10.7694
10.8002
10.831
10.8617
10.8924
10.9232
10.9539
10.9846
11.0153
11.0459
11.0766
11.1072
11.1378
11.1684
11.199
11.2296
11.2601
11.2906
11.3211
11.3515
11.382
11.4123
11.4427
11.473
11.5033
11.5336
11.564
11.5943
11.6246
11.655
11.6854
11.7158
11.7463
11.7769
11.8076
11.8383
11.8691
11.9001
11.9311
11.9622
11.9935
12.025
12.0565
12.0882
12.12
12.152
12.1842
12.2165
12.2489
12.2814
12.314
12.3468
12.3795
12.4124
12.4452
12.4782
12.5111
12.544
12.577
12.6099
12.6429
12.6759
12.7088
12.7418
12.7747
12.8077
12.8407
0.0164807
0.049442
0.0824033
0.115365
0.148326
0.181288
0.214249
0.247208
0.280164
0.313113
0.346052
0.378976
0.411878
0.444749
0.47758
0.510358
0.543071
0.575704
0.608237
0.640655
0.672937
0.705078
0.737071
0.768914
0.800614
0.832169
0.863589
0.894873
0.926031
0.957073
0.988004
1.01883
1.04957
1.08023
1.11081
1.14132
1.17177
1.20218
1.23255
1.26289
1.29321
1.32352
1.35383
1.38415
1.41448
1.44485
1.47524
1.50566
1.53611
1.56659
1.5971
1.62763
1.65819
1.68877
1.71937
1.74999
1.78063
1.81129
1.84196
1.87265
1.90336
1.93407
1.9648
1.99554
2.02629
2.05704
2.08781
2.11858
2.14935
2.18013
2.21092
2.24172
2.27253
2.30336
2.33421
2.3651
2.396
2.42694
2.45792
2.48894
2.51999
2.5511
2.58225
2.61345
2.64471
2.67602
2.7074
2.73883
2.77033
2.8019
2.83354
2.86525
2.89702
2.92887
2.96079
2.99277
3.02482
3.05693
3.08911
3.12134
3.15364
3.18598
3.21839
3.25084
3.28334
3.31589
3.34849
3.38113
3.41381
3.44652
3.47927
3.51206
3.54487
3.57771
3.61058
3.64347
3.67638
3.7093
3.74224
3.77518
3.80814
3.84147
3.87443
3.90702
3.93998
3.97294
4.0059
4.03887
4.07183
4.10479
4.13775
4.17071
4.20367
4.23663
4.26959
4.30256
4.33552
4.36848
4.40144
4.4344
4.46736
4.50033
4.53329
4.56625
4.59921
4.63217
4.66513
4.69809
4.73106
4.76402
4.79698
4.82994
4.8629
4.89586
4.92883
4.96179
4.99475
5.02771
5.06067
5.09363
5.12659
5.15956
5.19252
5.22548
5.25844
5.2914
5.32436
5.35733
5.39029
5.42325
5.45621
5.48917
5.52213
5.55509
5.58806
5.62102
5.65398
5.68694
5.7199
5.75286
5.78583
5.81879
5.85175
5.88471
5.91767
5.95063
5.98359
6.01656
6.04952
6.08248
6.11544
6.1484
6.18136
6.21432
6.24729
6.28025
6.31321
6.34617
6.37913
6.41209
6.44505
6.47802
6.51098
6.54394
6.5769
6.60986
6.64282
6.67579
6.70875
6.74171
6.77467
6.80763
6.84059
6.87355
6.90652
6.93948
6.97244
7.0054
7.03836
7.07132
7.10429
7.13725
7.17021
7.20317
7.23613
7.26909
7.30205
7.33502
7.36798
7.40094
7.4339
7.46686
7.49982
7.53278
7.56575
7.59871
7.63167
7.66463
7.69759
7.73055
7.76352
7.79648
7.82944
7.8624
7.89536
7.92832
7.96128
7.99425
8.02721
8.06017
8.09313
8.12609
8.15905
8.19202
8.22498
8.25794
8.2909
8.32386
8.35682
8.38978
8.42275
8.45571
8.48867
8.52163
8.55459
8.58755
8.62051
8.65348
8.68644
8.7194
8.75236
8.78532
8.81828
8.85125
8.88421
8.91717
8.95013
8.98272
9.01568
9.04901
9.08196
9.11491
9.14785
9.18077
9.21368
9.24657
9.27943
9.31228
9.34509
9.37788
9.41063
9.44334
9.47602
9.50866
9.54125
9.57381
9.60631
9.63876
9.67117
9.70351
9.7358
9.76804
9.80022
9.83233
9.86437
9.89636
9.92828
9.96012
9.9919
10.0236
10.0552
10.0868
10.1183
10.1498
10.1811
10.2124
10.2437
10.2749
10.3061
10.3372
10.3682
10.3992
10.4302
10.4611
10.4921
10.5229
10.5538
10.5846
10.6154
10.6462
10.677
10.7078
10.7386
10.7693
10.8001
10.8309
10.8616
10.8923
10.9231
10.9538
10.9845
11.0152
11.0459
11.0765
11.1072
11.1378
11.1684
11.199
11.2295
11.26
11.2906
11.321
11.3515
11.3819
11.4123
11.4427
11.473
11.5033
11.5336
11.5639
11.5943
11.6246
11.655
11.6854
11.7158
11.7463
11.7769
11.8076
11.8383
11.8691
11.9001
11.9311
11.9623
11.9936
12.025
12.0565
12.0882
12.1201
12.1521
12.1842
12.2165
12.2489
12.2814
12.3141
12.3468
12.3796
12.4124
12.4453
12.4782
12.5111
12.544
12.577
12.6099
12.6429
12.6759
12.7088
12.7418
12.7747
12.8077
12.8407
0.0164798
0.0494393
0.0823988
0.115358
0.148318
0.181278
0.214237
0.247195
0.280149
0.313096
0.346034
0.378955
0.411856
0.444725
0.477555
0.510332
0.543043
0.575675
0.608208
0.640625
0.672906
0.705048
0.737041
0.768884
0.800586
0.832141
0.863563
0.89485
0.926009
0.957054
0.987987
1.01882
1.04956
1.08022
1.1108
1.14132
1.17178
1.20219
1.23256
1.2629
1.29323
1.32354
1.35386
1.38418
1.41452
1.44488
1.47528
1.50571
1.53616
1.56665
1.59716
1.6277
1.65825
1.68884
1.71944
1.75006
1.78071
1.81137
1.84205
1.87274
1.90345
1.93417
1.9649
1.99564
2.02639
2.05715
2.08792
2.11869
2.14946
2.18025
2.21104
2.24184
2.27265
2.30349
2.33435
2.36523
2.39614
2.42708
2.45806
2.48908
2.52014
2.55125
2.5824
2.61361
2.64486
2.67618
2.70756
2.73899
2.7705
2.80206
2.8337
2.86541
2.89719
2.92904
2.96096
2.99294
3.02499
3.0571
3.08928
3.12151
3.1538
3.18615
3.21855
3.251
3.28351
3.31606
3.34865
3.38129
3.41397
3.44668
3.47943
3.51221
3.54503
3.57787
3.61073
3.64362
3.67653
3.70945
3.74238
3.77533
3.80828
3.84161
3.87457
3.90716
3.94012
3.97308
4.00603
4.039
4.07196
4.10492
4.13788
4.17084
4.20379
4.23675
4.26971
4.30267
4.33563
4.36859
4.40155
4.43451
4.46747
4.50043
4.53339
4.56635
4.59931
4.63227
4.66523
4.69819
4.73115
4.76411
4.79707
4.83003
4.86299
4.89595
4.92891
4.96187
4.99483
5.02779
5.06074
5.0937
5.12666
5.15963
5.19259
5.22555
5.2585
5.29146
5.32442
5.35738
5.39034
5.4233
5.45626
5.48922
5.52218
5.55514
5.5881
5.62106
5.65402
5.68698
5.71994
5.7529
5.78586
5.81882
5.85178
5.88474
5.9177
5.95066
5.98362
6.01658
6.04954
6.0825
6.11546
6.14842
6.18138
6.21434
6.2473
6.28026
6.31321
6.34617
6.37913
6.41209
6.44505
6.47801
6.51098
6.54393
6.57689
6.60985
6.64281
6.67577
6.70873
6.74169
6.77465
6.80761
6.84057
6.87353
6.90649
6.93945
6.97241
7.00537
7.03833
7.07129
7.10425
7.13721
7.17017
7.20313
7.23608
7.26905
7.30201
7.33497
7.36793
7.40089
7.43384
7.4668
7.49976
7.53273
7.56568
7.59864
7.6316
7.66456
7.69752
7.73048
7.76344
7.7964
7.82936
7.86232
7.89528
7.92824
7.9612
7.99416
8.02712
8.06008
8.09304
8.126
8.15896
8.19192
8.22488
8.25784
8.2908
8.32376
8.35672
8.38968
8.42264
8.4556
8.48856
8.52151
8.55447
8.58744
8.6204
8.65335
8.68631
8.71927
8.75223
8.78519
8.81815
8.85111
8.88407
8.91703
8.94999
8.98258
9.01554
9.04887
9.08182
9.11477
9.1477
9.18062
9.21353
9.24642
9.27928
9.31212
9.34493
9.37772
9.41047
9.44318
9.47586
9.5085
9.54109
9.57364
9.60614
9.6386
9.671
9.70335
9.73564
9.76787
9.80005
9.83216
9.86421
9.89619
9.92811
9.95996
9.99174
10.0234
10.0551
10.0867
10.1182
10.1496
10.181
10.2123
10.2435
10.2747
10.3059
10.337
10.3681
10.3991
10.4301
10.461
10.4919
10.5228
10.5537
10.5845
10.6153
10.6461
10.6769
10.7077
10.7385
10.7692
10.8
10.8308
10.8615
10.8923
10.923
10.9537
10.9844
11.0151
11.0458
11.0764
11.1071
11.1377
11.1683
11.1989
11.2295
11.26
11.2905
11.321
11.3514
11.3819
11.4123
11.4426
11.473
11.5033
11.5336
11.5639
11.5942
11.6246
11.655
11.6854
11.7158
11.7463
11.7769
11.8076
11.8383
11.8692
11.9001
11.9311
11.9623
11.9936
12.025
12.0566
12.0883
12.1201
12.1521
12.1842
12.2165
12.2489
12.2815
12.3141
12.3468
12.3796
12.4124
12.4453
12.4782
12.5111
12.5441
12.577
12.61
12.6429
12.6759
12.7088
12.7418
12.7747
12.8077
12.8407
0.0164789
0.0494366
0.0823943
0.115352
0.14831
0.181268
0.214225
0.247181
0.280133
0.313079
0.346015
0.378935
0.411833
0.444701
0.477529
0.510305
0.543015
0.575646
0.608177
0.640594
0.672875
0.705017
0.73701
0.768854
0.800557
0.832114
0.863537
0.894825
0.925987
0.957035
0.98797
1.01881
1.04955
1.08021
1.1108
1.14132
1.17178
1.2022
1.23257
1.26292
1.29325
1.32357
1.35388
1.38421
1.41455
1.44492
1.47532
1.50575
1.53621
1.5667
1.59722
1.62776
1.65832
1.68891
1.71951
1.75014
1.78079
1.81145
1.84213
1.87283
1.90354
1.93426
1.96499
1.99574
2.02649
2.05726
2.08803
2.1188
2.14958
2.18037
2.21116
2.24196
2.27278
2.30362
2.33448
2.36537
2.39628
2.42723
2.45821
2.48923
2.52029
2.5514
2.58255
2.61376
2.64502
2.67634
2.70772
2.73916
2.77066
2.80223
2.83387
2.86558
2.89736
2.92921
2.96113
2.99311
3.02516
3.05727
3.08945
3.12168
3.15397
3.18632
3.21872
3.25117
3.28367
3.31622
3.34882
3.38145
3.41413
3.44684
3.47959
3.51237
3.54519
3.57802
3.61089
3.64377
3.67668
3.7096
3.74253
3.77547
3.80842
3.84175
3.87471
3.9073
3.94025
3.97321
4.00617
4.03913
4.07209
4.10504
4.138
4.17096
4.20392
4.23687
4.26983
4.30279
4.33575
4.36871
4.40166
4.43462
4.46758
4.50054
4.5335
4.56645
4.59941
4.63237
4.66533
4.69828
4.73124
4.7642
4.79716
4.83012
4.86307
4.89603
4.92899
4.96195
4.99491
5.02786
5.06082
5.09378
5.12674
5.1597
5.19266
5.22561
5.25857
5.29153
5.32448
5.35744
5.3904
5.42336
5.45632
5.48927
5.52223
5.55519
5.58815
5.62111
5.65407
5.68702
5.71998
5.75294
5.7859
5.81885
5.85181
5.88477
5.91772
5.95068
5.98364
6.0166
6.04956
6.08252
6.11547
6.14843
6.18139
6.21435
6.24731
6.28026
6.31322
6.34618
6.37914
6.4121
6.44505
6.47801
6.51097
6.54393
6.57688
6.60984
6.6428
6.67576
6.70872
6.74167
6.77463
6.80759
6.84055
6.87351
6.90646
6.93942
6.97238
7.00534
7.03829
7.07125
7.10421
7.13717
7.17013
7.20308
7.23604
7.269
7.30196
7.33492
7.36788
7.40083
7.43379
7.46675
7.49971
7.53266
7.56562
7.59858
7.63154
7.66449
7.69745
7.73041
7.76337
7.79633
7.82928
7.86224
7.8952
7.92816
7.96112
7.99407
8.02703
8.05999
8.09295
8.12591
8.15886
8.19182
8.22478
8.25774
8.29069
8.32365
8.35661
8.38957
8.42253
8.45548
8.48844
8.5214
8.55436
8.58732
8.62028
8.65323
8.68619
8.71915
8.7521
8.78506
8.81802
8.85098
8.88394
8.91689
8.94985
8.98244
9.0154
9.04873
9.08168
9.11462
9.14755
9.18047
9.21337
9.24626
9.27912
9.31196
9.34477
9.37756
9.4103
9.44302
9.4757
9.50833
9.54092
9.57347
9.60597
9.63843
9.67083
9.70318
9.73547
9.7677
9.79988
9.83199
9.86404
9.89602
9.92794
9.95979
9.99157
10.0233
10.0549
10.0865
10.118
10.1494
10.1808
10.2121
10.2434
10.2746
10.3058
10.3369
10.3679
10.3989
10.4299
10.4609
10.4918
10.5227
10.5535
10.5844
10.6152
10.646
10.6768
10.7076
10.7383
10.7691
10.7999
10.8307
10.8614
10.8922
10.9229
10.9536
10.9843
11.015
11.0457
11.0764
11.107
11.1376
11.1682
11.1988
11.2294
11.2599
11.2904
11.3209
11.3514
11.3818
11.4122
11.4426
11.4729
11.5033
11.5336
11.5639
11.5942
11.6246
11.6549
11.6854
11.7158
11.7463
11.7769
11.8076
11.8383
11.8692
11.9001
11.9312
11.9623
11.9936
12.025
12.0566
12.0883
12.1201
12.1521
12.1843
12.2166
12.249
12.2815
12.3141
12.3468
12.3796
12.4124
12.4453
12.4782
12.5111
12.5441
12.577
12.61
12.6429
12.6759
12.7088
12.7418
12.7748
12.8077
12.8407
0.0164779
0.0494338
0.0823897
0.115346
0.148302
0.181258
0.214213
0.247167
0.280118
0.313062
0.345995
0.378914
0.411811
0.444677
0.477503
0.510278
0.542987
0.575616
0.608147
0.640563
0.672844
0.704985
0.736979
0.768824
0.800527
0.832086
0.863511
0.894801
0.925964
0.957015
0.987953
1.01879
1.04954
1.0802
1.11079
1.14132
1.17178
1.2022
1.23258
1.26293
1.29327
1.32359
1.35391
1.38424
1.41459
1.44496
1.47537
1.5058
1.53627
1.56676
1.59728
1.62782
1.65839
1.68898
1.71959
1.75022
1.78087
1.81153
1.84222
1.87292
1.90363
1.93436
1.96509
1.99584
2.0266
2.05737
2.08814
2.11892
2.1497
2.18049
2.21128
2.24209
2.27291
2.30375
2.33462
2.36551
2.39642
2.42737
2.45836
2.48938
2.52044
2.55155
2.58271
2.61392
2.64518
2.6765
2.70788
2.73932
2.77083
2.8024
2.83404
2.86575
2.89753
2.92938
2.9613
2.99328
3.02533
3.05745
3.08962
3.12185
3.15415
3.18649
3.21889
3.25134
3.28384
3.31639
3.34899
3.38162
3.4143
3.44701
3.47976
3.51254
3.54535
3.57818
3.61104
3.64393
3.67683
3.70975
3.74268
3.77562
3.80857
3.84189
3.87485
3.90744
3.94039
3.97335
4.0063
4.03926
4.07222
4.10517
4.13813
4.17109
4.20404
4.237
4.26995
4.30291
4.33587
4.36882
4.40178
4.43473
4.46769
4.50064
4.5336
4.56656
4.59951
4.63247
4.66542
4.69838
4.73134
4.7643
4.79725
4.83021
4.86316
4.89612
4.92907
4.96203
4.99499
5.02794
5.0609
5.09385
5.12681
5.15977
5.19272
5.22568
5.25863
5.29159
5.32455
5.3575
5.39046
5.42342
5.45637
5.48932
5.52228
5.55524
5.5882
5.62115
5.65411
5.68706
5.72002
5.75297
5.78593
5.81889
5.85184
5.8848
5.91775
5.95071
5.98367
6.01662
6.04958
6.08254
6.11549
6.14845
6.1814
6.21436
6.24732
6.28027
6.31323
6.34618
6.37914
6.4121
6.44505
6.47801
6.51097
6.54392
6.57688
6.60983
6.64279
6.67575
6.7087
6.74166
6.77461
6.80757
6.84052
6.87348
6.90644
6.93939
6.97235
7.0053
7.03826
7.07122
7.10417
7.13713
7.17008
7.20304
7.23599
7.26895
7.30191
7.33487
7.36782
7.40078
7.43373
7.46669
7.49965
7.5326
7.56556
7.59851
7.63147
7.66442
7.69738
7.73034
7.7633
7.79625
7.82921
7.86216
7.89512
7.92807
7.96103
7.99399
8.02694
8.0599
8.09285
8.12581
8.15877
8.19172
8.22468
8.25763
8.29059
8.32355
8.3565
8.38946
8.42242
8.45537
8.48833
8.52128
8.55424
8.5872
8.62015
8.65311
8.68606
8.71902
8.75197
8.78493
8.81789
8.85085
8.8838
8.91676
8.94971
8.9823
9.01526
9.04858
9.08153
9.11447
9.1474
9.18032
9.21322
9.2461
9.27897
9.3118
9.34461
9.37739
9.41014
9.44285
9.47553
9.50816
9.54075
9.5733
9.6058
9.63825
9.67066
9.703
9.73529
9.76753
9.7997
9.83181
9.86386
9.89585
9.92777
9.95962
9.9914
10.0231
10.0547
10.0863
10.1178
10.1493
10.1806
10.212
10.2432
10.2744
10.3056
10.3367
10.3678
10.3988
10.4298
10.4607
10.4916
10.5225
10.5534
10.5842
10.6151
10.6459
10.6767
10.7074
10.7382
10.769
10.7998
10.8305
10.8613
10.8921
10.9228
10.9535
10.9842
11.0149
11.0456
11.0763
11.1069
11.1376
11.1682
11.1988
11.2293
11.2599
11.2904
11.3209
11.3513
11.3818
11.4122
11.4426
11.4729
11.5032
11.5336
11.5639
11.5942
11.6246
11.6549
11.6854
11.7158
11.7464
11.7769
11.8076
11.8384
11.8692
11.9001
11.9312
11.9623
11.9936
12.0251
12.0566
12.0883
12.1202
12.1522
12.1843
12.2166
12.249
12.2815
12.3142
12.3469
12.3796
12.4125
12.4453
12.4782
12.5112
12.5441
12.577
12.61
12.6429
12.6759
12.7088
12.7418
12.7748
12.8077
12.8407
0.016477
0.049431
0.082385
0.115339
0.148293
0.181247
0.214201
0.247153
0.280102
0.313044
0.345976
0.378892
0.411787
0.444652
0.477477
0.51025
0.542958
0.575586
0.608116
0.640531
0.672812
0.704953
0.736947
0.768793
0.800497
0.832057
0.863484
0.894776
0.925942
0.956994
0.987936
1.01878
1.04953
1.08019
1.11079
1.14132
1.17179
1.20221
1.2326
1.26295
1.29329
1.32361
1.35394
1.38427
1.41462
1.445
1.47541
1.50585
1.53632
1.56681
1.59734
1.62788
1.65845
1.68905
1.71966
1.75029
1.78095
1.81162
1.84231
1.87301
1.90372
1.93445
1.9652
1.99595
2.02671
2.05748
2.08825
2.11903
2.14982
2.18061
2.21141
2.24222
2.27305
2.30389
2.33476
2.36565
2.39657
2.42752
2.4585
2.48953
2.5206
2.55171
2.58287
2.61408
2.64535
2.67667
2.70805
2.73949
2.771
2.80257
2.83421
2.86592
2.8977
2.92956
2.96147
2.99346
3.02551
3.05762
3.0898
3.12203
3.15432
3.18667
3.21907
3.25152
3.28402
3.31656
3.34916
3.38179
3.41446
3.44718
3.47992
3.5127
3.54551
3.57834
3.6112
3.64409
3.67699
3.7099
3.74283
3.77577
3.80872
3.84204
3.87499
3.90758
3.94053
3.97349
4.00644
4.0394
4.07235
4.10531
4.13826
4.17121
4.20417
4.23712
4.27007
4.30303
4.33599
4.36894
4.40189
4.43485
4.4678
4.50075
4.53371
4.56666
4.59962
4.63257
4.66552
4.69848
4.73143
4.76439
4.79734
4.8303
4.86325
4.8962
4.92916
4.96211
4.99507
5.02802
5.06097
5.09393
5.12688
5.15984
5.19279
5.22575
5.2587
5.29165
5.32461
5.35756
5.39052
5.42347
5.45643
5.48938
5.52233
5.55529
5.58824
5.6212
5.65415
5.68711
5.72006
5.75301
5.78597
5.81892
5.85188
5.88483
5.91778
5.95074
5.98369
6.01665
6.0496
6.08256
6.11551
6.14846
6.18142
6.21437
6.24733
6.28028
6.31323
6.34619
6.37914
6.4121
6.44505
6.47801
6.51096
6.54391
6.57687
6.60982
6.64278
6.67573
6.70869
6.74164
6.77459
6.80754
6.8405
6.87346
6.90641
6.93937
6.97232
7.00527
7.03822
7.07118
7.10414
7.13709
7.17004
7.203
7.23595
7.2689
7.30186
7.33482
7.36777
7.40072
7.43367
7.46663
7.49958
7.53254
7.56549
7.59845
7.6314
7.66435
7.69731
7.73026
7.76322
7.79617
7.82913
7.86208
7.89503
7.92799
7.96094
7.9939
8.02685
8.0598
8.09276
8.12571
8.15867
8.19162
8.22458
8.25753
8.29048
8.32344
8.35639
8.38935
8.4223
8.45526
8.48821
8.52116
8.55412
8.58707
8.62003
8.65298
8.68593
8.71889
8.75184
8.7848
8.81775
8.85071
8.88366
8.91661
8.94957
8.98215
9.01511
9.04843
9.08138
9.11431
9.14725
9.18016
9.21306
9.24594
9.2788
9.31164
9.34445
9.37723
9.40997
9.44268
9.47536
9.50799
9.54058
9.57313
9.60563
9.63808
9.67048
9.70283
9.73512
9.76735
9.79953
9.83164
9.86369
9.89567
9.92759
9.95944
9.99123
10.0229
10.0546
10.0861
10.1177
10.1491
10.1805
10.2118
10.2431
10.2743
10.3054
10.3366
10.3676
10.3986
10.4296
10.4606
10.4915
10.5224
10.5533
10.5841
10.6149
10.6457
10.6765
10.7073
10.7381
10.7689
10.7997
10.8304
10.8612
10.892
10.9227
10.9534
10.9841
11.0148
11.0455
11.0762
11.1069
11.1375
11.1681
11.1987
11.2293
11.2598
11.2903
11.3208
11.3513
11.3817
11.4121
11.4425
11.4729
11.5032
11.5335
11.5639
11.5942
11.6246
11.6549
11.6854
11.7158
11.7464
11.777
11.8076
11.8384
11.8692
11.9002
11.9312
11.9624
11.9937
12.0251
12.0567
12.0884
12.1202
12.1522
12.1843
12.2166
12.249
12.2816
12.3142
12.3469
12.3797
12.4125
12.4454
12.4783
12.5112
12.5441
12.577
12.61
12.6429
12.6759
12.7089
12.7418
12.7748
12.8077
12.8407
0.0164761
0.0494282
0.0823802
0.115332
0.148285
0.181237
0.214189
0.247139
0.280085
0.313026
0.345956
0.378871
0.411764
0.444627
0.47745
0.510222
0.542928
0.575555
0.608084
0.640499
0.672779
0.704921
0.736915
0.768761
0.800467
0.832028
0.863456
0.89475
0.925918
0.956974
0.987918
1.01876
1.04952
1.08019
1.11079
1.14132
1.17179
1.20222
1.23261
1.26297
1.29331
1.32364
1.35397
1.3843
1.41466
1.44504
1.47546
1.5059
1.53637
1.56687