/*--------------------------------*- C++ -*----------------------------------*\
| =========                 |                                                 |
| \\      /  F ield         | OpenFOAM: The Open Source CFD Toolbox           |
|  \\    /   O peration     | Version:  v2006                                 |
|   \\  /    A nd           | Website:  www.openfoam.com                      |
|    \\/     M anipulation  |                                                 |
\*---------------------------------------------------------------------------*/
FoamFile
{
    version     2.0;
    format      ascii;
    class       volScalarField;
    location    "0";
    object      Cy;
}
// * * * * * * * * * * * * * * * * * * * * * * * * * * * * * * * * * * * * * //

dimensions      [0 1 0 0 0 0 0];


internalField   nonuniform List<scalar> 
80000
(
1.00207
1.00214
1.00225
1.00235
1.0024
1.00234
1.00215
1.00177
1.00115
1.00026
0.999049
0.997471
0.995484
0.993046
0.990116
0.98665
0.982608
0.977957
0.97266
0.966681
0.960011
0.952672
0.944713
0.93618
0.927113
0.917558
0.907551
0.897134
0.886345
0.875218
0.863787
0.852084
0.840138
0.827977
0.815626
0.803114
0.790462
0.777693
0.764832
0.751901
0.738923
0.725923
0.712921
0.699938
0.687001
0.674127
0.661325
0.648596
0.635938
0.623348
0.610823
0.598359
0.585955
0.573607
0.561313
0.54907
0.536876
0.524725
0.512617
0.500548
0.488516
0.476517
0.464548
0.452607
0.44069
0.428793
0.416914
0.405052
0.393201
0.381364
0.369548
0.357761
0.346014
0.334317
0.322678
0.311107
0.299615
0.28821
0.276903
0.265705
0.254625
0.243674
0.232862
0.222201
0.211702
0.201375
0.191233
0.181288
0.171551
0.162035
0.152751
0.143713
0.134931
0.126408
0.118148
0.110152
0.102425
0.0949672
0.0877833
0.0808753
0.0742453
0.0678962
0.06183
0.0560494
0.0505568
0.0453545
0.0404446
0.0358291
0.0315101
0.0274895
0.0237696
0.0203519
0.0172381
0.0144295
0.0119284
0.00973656
0.00785356
0.00628153
0.00502243
0.00407612
0.00344391
0.00312419
0.00304452
0.00304722
0.00304722
0.00304722
0.00304722
0.00304722
0.00304722
0.00304722
0.00304722
0.00304722
0.00304722
0.00304722
0.00304722
0.00304722
0.00304722
0.00304722
0.00304722
0.00304722
0.00304722
0.00304722
0.00304722
0.00304722
0.00304722
0.00304722
0.00304722
0.00304722
0.00304722
0.00304722
0.00304722
0.00304722
0.00304722
0.00304722
0.00304722
0.00304722
0.00304722
0.00304722
0.00304722
0.00304722
0.00304722
0.00304722
0.00304722
0.00304722
0.00304722
0.00304722
0.00304722
0.00304722
0.00304722
0.00304722
0.00304722
0.00304722
0.00304722
0.00304722
0.00304722
0.00304722
0.00304722
0.00304722
0.00304722
0.00304722
0.00304722
0.00304722
0.00304722
0.00304722
0.00304722
0.00304722
0.00304722
0.00304722
0.00304722
0.00304722
0.00304722
0.00304722
0.00304722
0.00304722
0.00304722
0.00304722
0.00304722
0.00304722
0.00304722
0.00304722
0.00304722
0.00304722
0.00304722
0.00304722
0.00304722
0.00304722
0.00304722
0.00304722
0.00304722
0.00304722
0.00304722
0.00304722
0.00304722
0.00304722
0.00304722
0.00304722
0.00304722
0.00304722
0.00304722
0.00304722
0.00304722
0.00304722
0.00304722
0.00304722
0.00304722
0.00304722
0.00304722
0.00304722
0.00304722
0.00304722
0.00304722
0.00304722
0.00304722
0.00304722
0.00304722
0.00304722
0.00304722
0.00304722
0.00304722
0.00304722
0.00304722
0.00304722
0.00304722
0.00304722
0.00304722
0.00304722
0.00304722
0.00304722
0.00304722
0.00304722
0.00304722
0.00304722
0.00304722
0.00304722
0.00304722
0.00304722
0.00304722
0.00304722
0.00304722
0.00304722
0.00304722
0.00304722
0.00304722
0.00304722
0.00304722
0.00304722
0.00304722
0.00304722
0.00304722
0.00304722
0.00304722
0.00304722
0.00304722
0.00304722
0.00304722
0.00304722
0.00304722
0.00304452
0.00312419
0.00344391
0.00407612
0.00502243
0.00628153
0.00785356
0.00973657
0.0119285
0.0144301
0.0172389
0.0203518
0.023769
0.0274898
0.0315103
0.0358277
0.0404443
0.0453552
0.0505559
0.0560497
0.0618312
0.0678954
0.0742452
0.0808766
0.0877834
0.0949653
0.102424
0.110153
0.118147
0.126409
0.134933
0.143712
0.152752
0.162037
0.171551
0.181286
0.191233
0.201377
0.2117
0.2222
0.232863
0.243673
0.254626
0.265708
0.276904
0.288208
0.299615
0.311109
0.322677
0.334315
0.346015
0.357762
0.369545
0.381363
0.393203
0.40505
0.416916
0.428797
0.44069
0.452604
0.464548
0.476519
0.488514
0.500546
0.512617
0.524725
0.536876
0.549074
0.561315
0.573606
0.585956
0.598363
0.610823
0.623346
0.635938
0.648598
0.661323
0.674124
0.687001
0.699938
0.712921
0.725926
0.738926
0.751899
0.764832
0.777697
0.790462
0.80311
0.815626
0.827979
0.840136
0.852081
0.863787
0.875218
0.886345
0.897136
0.907552
0.917556
0.927113
0.936182
0.944713
0.95267
0.960011
0.966681
0.97266
0.977959
0.982609
0.986649
0.990116
0.993047
0.995484
0.997471
0.999049
1.00026
1.00115
1.00177
1.00215
1.00234
1.0024
1.00235
1.00225
1.00214
1.00207
1.00619
1.00626
1.00637
1.00647
1.00652
1.00646
1.00627
1.00589
1.00528
1.00439
1.00318
1.0016
0.999618
0.997185
0.99426
0.990801
0.986768
0.982127
0.97684
0.970873
0.964216
0.956892
0.94895
0.940434
0.931386
0.92185
0.911863
0.901467
0.8907
0.879595
0.868187
0.856508
0.844586
0.83245
0.820125
0.807637
0.795011
0.782268
0.769433
0.756528
0.743577
0.730603
0.717627
0.704671
0.691759
0.678912
0.666136
0.653433
0.6408
0.628236
0.615737
0.603298
0.590919
0.578595
0.566326
0.554109
0.541939
0.529813
0.517729
0.505684
0.493676
0.481702
0.469757
0.45784
0.445948
0.434075
0.42222
0.410381
0.398555
0.386742
0.37495
0.363187
0.351464
0.33979
0.328175
0.316627
0.305159
0.293777
0.282493
0.271317
0.260259
0.24933
0.238541
0.227902
0.217424
0.207118
0.196996
0.187071
0.177354
0.167857
0.158592
0.149572
0.140808
0.132302
0.124059
0.11608
0.108368
0.100925
0.093756
0.086862
0.0802455
0.0739092
0.0678554
0.0620865
0.056605
0.0514132
0.0465133
0.0419071
0.0375969
0.0335844
0.0298721
0.0264613
0.0233538
0.0205509
0.0180549
0.0158674
0.0139883
0.0124194
0.0111629
0.0102185
0.00958754
0.00926847
0.00918896
0.00919165
0.00919165
0.00919165
0.00919165
0.00919165
0.00919165
0.00919165
0.00919165
0.00919165
0.00919165
0.00919165
0.00919165
0.00919165
0.00919165
0.00919165
0.00919165
0.00919165
0.00919165
0.00919165
0.00919165
0.00919165
0.00919165
0.00919165
0.00919165
0.00919165
0.00919165
0.00919165
0.00919165
0.00919165
0.00919165
0.00919165
0.00919165
0.00919165
0.00919165
0.00919165
0.00919165
0.00919165
0.00919165
0.00919165
0.00919165
0.00919165
0.00919165
0.00919165
0.00919165
0.00919165
0.00919165
0.00919165
0.00919165
0.00919165
0.00919165
0.00919165
0.00919165
0.00919165
0.00919165
0.00919165
0.00919165
0.00919165
0.00919165
0.00919165
0.00919165
0.00919165
0.00919165
0.00919165
0.00919165
0.00919165
0.00919165
0.00919165
0.00919165
0.00919165
0.00919165
0.00919165
0.00919165
0.00919165
0.00919165
0.00919165
0.00919165
0.00919165
0.00919165
0.00919165
0.00919165
0.00919165
0.00919165
0.00919165
0.00919165
0.00919165
0.00919165
0.00919165
0.00919165
0.00919165
0.00919165
0.00919165
0.00919165
0.00919165
0.00919165
0.00919165
0.00919165
0.00919165
0.00919165
0.00919165
0.00919165
0.00919165
0.00919165
0.00919165
0.00919165
0.00919165
0.00919165
0.00919165
0.00919165
0.00919165
0.00919165
0.00919165
0.00919165
0.00919165
0.00919165
0.00919165
0.00919165
0.00919165
0.00919165
0.00919165
0.00919165
0.00919165
0.00919165
0.00919165
0.00919165
0.00919165
0.00919165
0.00919165
0.00919165
0.00919165
0.00919165
0.00919165
0.00919165
0.00919165
0.00919165
0.00919165
0.00919165
0.00919165
0.00919165
0.00919165
0.00919165
0.00919165
0.00919165
0.00919165
0.00919165
0.00919165
0.00919165
0.00919165
0.00919165
0.00919165
0.00919165
0.00919165
0.00919165
0.00919165
0.00919165
0.00918896
0.00926847
0.00958754
0.0102185
0.0111629
0.0124194
0.0139883
0.0158674
0.0180549
0.0205515
0.0233546
0.0264612
0.0298715
0.0335847
0.0375971
0.0419057
0.0465129
0.0514139
0.0566041
0.0620867
0.0678566
0.0739084
0.0802453
0.0868633
0.0937562
0.100924
0.108367
0.11608
0.124058
0.132304
0.14081
0.149572
0.158593
0.167859
0.177354
0.187069
0.196997
0.207119
0.217422
0.2279
0.238542
0.24933
0.26026
0.27132
0.282494
0.293774
0.305158
0.31663
0.328174
0.339788
0.351465
0.363188
0.374947
0.386741
0.398557
0.41038
0.422222
0.434079
0.445947
0.457838
0.469757
0.481704
0.493675
0.505683
0.517729
0.529812
0.541939
0.554112
0.566328
0.578594
0.590919
0.603301
0.615736
0.628233
0.6408
0.653435
0.666134
0.678909
0.69176
0.704671
0.717627
0.730606
0.743579
0.756526
0.769433
0.782272
0.795011
0.807634
0.820124
0.832452
0.844584
0.856505
0.868187
0.879595
0.8907
0.901469
0.911864
0.921848
0.931386
0.940436
0.948949
0.956891
0.964217
0.970873
0.97684
0.982128
0.986769
0.990801
0.99426
0.997185
0.999618
1.0016
1.00318
1.00439
1.00528
1.00589
1.00627
1.00646
1.00652
1.00647
1.00637
1.00626
1.00619
1.01037
1.01045
1.01056
1.01066
1.0107
1.01065
1.01046
1.01008
1.00947
1.00858
1.00737
1.0058
1.00382
1.00139
0.998473
0.995021
0.990996
0.986364
0.981088
0.975134
0.968491
0.961182
0.953256
0.944758
0.935728
0.926212
0.916246
0.905871
0.895126
0.884044
0.87266
0.861005
0.849108
0.836996
0.824696
0.812235
0.799635
0.786918
0.77411
0.761231
0.748307
0.73536
0.72241
0.709481
0.696596
0.683775
0.671025
0.658348
0.645742
0.633204
0.62073
0.608317
0.595963
0.583666
0.571422
0.559229
0.547084
0.534984
0.522925
0.510905
0.498922
0.486972
0.475052
0.46316
0.451291
0.439444
0.427613
0.415799
0.403997
0.392208
0.38044
0.368702
0.357002
0.345353
0.333762
0.322238
0.310793
0.299435
0.288174
0.277021
0.265986
0.25508
0.244313
0.233696
0.223239
0.212955
0.202854
0.192949
0.183252
0.173775
0.164529
0.155528
0.146782
0.138293
0.130067
0.122104
0.114408
0.106981
0.0998267
0.0929469
0.086344
0.0800208
0.0739795
0.0682225
0.0627523
0.0575712
0.0526814
0.0480848
0.0437834
0.0397793
0.0360745
0.0326708
0.0295697
0.0267726
0.0242817
0.0220988
0.0202235
0.0186579
0.0174039
0.0164615
0.0158319
0.0155135
0.0154341
0.0154368
0.0154368
0.0154368
0.0154368
0.0154368
0.0154368
0.0154368
0.0154368
0.0154368
0.0154368
0.0154368
0.0154368
0.0154368
0.0154368
0.0154368
0.0154368
0.0154368
0.0154368
0.0154368
0.0154368
0.0154368
0.0154368
0.0154368
0.0154368
0.0154368
0.0154368
0.0154368
0.0154368
0.0154368
0.0154368
0.0154368
0.0154368
0.0154368
0.0154368
0.0154368
0.0154368
0.0154368
0.0154368
0.0154368
0.0154368
0.0154368
0.0154368
0.0154368
0.0154368
0.0154368
0.0154368
0.0154368
0.0154368
0.0154368
0.0154368
0.0154368
0.0154368
0.0154368
0.0154368
0.0154368
0.0154368
0.0154368
0.0154368
0.0154368
0.0154368
0.0154368
0.0154368
0.0154368
0.0154368
0.0154368
0.0154368
0.0154368
0.0154368
0.0154368
0.0154368
0.0154368
0.0154368
0.0154368
0.0154368
0.0154368
0.0154368
0.0154368
0.0154368
0.0154368
0.0154368
0.0154368
0.0154368
0.0154368
0.0154368
0.0154368
0.0154368
0.0154368
0.0154368
0.0154368
0.0154368
0.0154368
0.0154368
0.0154368
0.0154368
0.0154368
0.0154368
0.0154368
0.0154368
0.0154368
0.0154368
0.0154368
0.0154368
0.0154368
0.0154368
0.0154368
0.0154368
0.0154368
0.0154368
0.0154368
0.0154368
0.0154368
0.0154368
0.0154368
0.0154368
0.0154368
0.0154368
0.0154368
0.0154368
0.0154368
0.0154368
0.0154368
0.0154368
0.0154368
0.0154368
0.0154368
0.0154368
0.0154368
0.0154368
0.0154368
0.0154368
0.0154368
0.0154368
0.0154368
0.0154368
0.0154368
0.0154368
0.0154368
0.0154368
0.0154368
0.0154368
0.0154368
0.0154368
0.0154368
0.0154368
0.0154368
0.0154368
0.0154368
0.0154368
0.0154368
0.0154368
0.0154368
0.0154368
0.0154368
0.0154368
0.0154341
0.0155135
0.0158319
0.0164615
0.0174039
0.0186579
0.0202235
0.0220988
0.0242817
0.0267732
0.0295705
0.0326707
0.0360739
0.0397795
0.0437836
0.0480834
0.0526811
0.0575719
0.0627514
0.0682227
0.0739807
0.08002
0.0863439
0.0929482
0.0998268
0.106979
0.114408
0.122105
0.130067
0.138295
0.146783
0.155527
0.16453
0.173777
0.183252
0.192947
0.202854
0.212956
0.223237
0.233694
0.244314
0.255079
0.265987
0.277025
0.288175
0.299432
0.310793
0.32224
0.333761
0.345351
0.357004
0.368702
0.380437
0.392207
0.403998
0.415798
0.427614
0.439447
0.451291
0.463157
0.475052
0.486974
0.498921
0.510903
0.522925
0.534983
0.547085
0.559232
0.571424
0.583664
0.595964
0.60832
0.62073
0.633201
0.645742
0.65835
0.671023
0.683772
0.696596
0.709481
0.722411
0.735363
0.748309
0.761229
0.77411
0.786922
0.799635
0.812232
0.824696
0.836998
0.849106
0.861002
0.87266
0.884044
0.895126
0.905873
0.916246
0.92621
0.935728
0.94476
0.953255
0.96118
0.968491
0.975134
0.981089
0.986366
0.990997
0.99502
0.998473
1.00139
1.00382
1.0058
1.00737
1.00858
1.00947
1.01008
1.01046
1.01065
1.0107
1.01066
1.01056
1.01045
1.01037
1.01463
1.0147
1.01481
1.01491
1.01496
1.01491
1.01471
1.01433
1.01372
1.01284
1.01163
1.01006
1.00809
1.00567
1.00275
0.99931
0.995293
0.990671
0.985406
0.979465
0.972836
0.965542
0.957632
0.949152
0.940141
0.930645
0.9207
0.910347
0.899625
0.888566
0.877206
0.865575
0.853703
0.841617
0.829343
0.816908
0.804334
0.791644
0.778863
0.766011
0.753114
0.740194
0.727272
0.71437
0.701512
0.688718
0.675995
0.663345
0.650765
0.638253
0.625805
0.613418
0.601091
0.588819
0.576601
0.564434
0.552315
0.540239
0.528205
0.516211
0.504253
0.492329
0.480434
0.468566
0.456723
0.4449
0.433094
0.421305
0.409528
0.397763
0.386021
0.374307
0.362632
0.351007
0.33944
0.327941
0.31652
0.305186
0.293948
0.282819
0.271807
0.260924
0.25018
0.239584
0.22915
0.218887
0.208808
0.198924
0.189247
0.179789
0.170563
0.161581
0.152853
0.144383
0.136174
0.128228
0.120548
0.113136
0.105997
0.0991315
0.0925425
0.0862326
0.0802039
0.074459
0.0690003
0.0638302
0.0589506
0.0543637
0.0500713
0.0460756
0.0423787
0.0389821
0.0358875
0.0330963
0.0306106
0.0284323
0.0265609
0.0249986
0.0237473
0.0228068
0.0221785
0.0218608
0.0217816
0.0217843
0.0217843
0.0217843
0.0217843
0.0217843
0.0217843
0.0217843
0.0217843
0.0217843
0.0217843
0.0217843
0.0217843
0.0217843
0.0217843
0.0217843
0.0217843
0.0217843
0.0217843
0.0217843
0.0217843
0.0217843
0.0217843
0.0217843
0.0217843
0.0217843
0.0217843
0.0217843
0.0217843
0.0217843
0.0217843
0.0217843
0.0217843
0.0217843
0.0217843
0.0217843
0.0217843
0.0217843
0.0217843
0.0217843
0.0217843
0.0217843
0.0217843
0.0217843
0.0217843
0.0217843
0.0217843
0.0217843
0.0217843
0.0217843
0.0217843
0.0217843
0.0217843
0.0217843
0.0217843
0.0217843
0.0217843
0.0217843
0.0217843
0.0217843
0.0217843
0.0217843
0.0217843
0.0217843
0.0217843
0.0217843
0.0217843
0.0217843
0.0217843
0.0217843
0.0217843
0.0217843
0.0217843
0.0217843
0.0217843
0.0217843
0.0217843
0.0217843
0.0217843
0.0217843
0.0217843
0.0217843
0.0217843
0.0217843
0.0217843
0.0217843
0.0217843
0.0217843
0.0217843
0.0217843
0.0217843
0.0217843
0.0217843
0.0217843
0.0217843
0.0217843
0.0217843
0.0217843
0.0217843
0.0217843
0.0217843
0.0217843
0.0217843
0.0217843
0.0217843
0.0217843
0.0217843
0.0217843
0.0217843
0.0217843
0.0217843
0.0217843
0.0217843
0.0217843
0.0217843
0.0217843
0.0217843
0.0217843
0.0217843
0.0217843
0.0217843
0.0217843
0.0217843
0.0217843
0.0217843
0.0217843
0.0217843
0.0217843
0.0217843
0.0217843
0.0217843
0.0217843
0.0217843
0.0217843
0.0217843
0.0217843
0.0217843
0.0217843
0.0217843
0.0217843
0.0217843
0.0217843
0.0217843
0.0217843
0.0217843
0.0217843
0.0217843
0.0217843
0.0217843
0.0217843
0.0217843
0.0217843
0.0217843
0.0217843
0.0217843
0.0217816
0.0218608
0.0221785
0.0228068
0.0237473
0.0249986
0.0265609
0.0284323
0.0306106
0.0330969
0.0358883
0.038982
0.0423781
0.0460758
0.0500715
0.0543623
0.0589503
0.0638309
0.0689995
0.0744593
0.0802051
0.0862318
0.0925423
0.0991328
0.105997
0.113135
0.120547
0.128228
0.136173
0.144384
0.152855
0.16158
0.170564
0.179792
0.189247
0.198922
0.208808
0.218889
0.229148
0.239583
0.25018
0.260923
0.271808
0.282822
0.293949
0.305183
0.316519
0.327943
0.339439
0.351006
0.362633
0.374307
0.386018
0.397763
0.409529
0.421304
0.433096
0.444904
0.456723
0.468564
0.480434
0.492331
0.504252
0.51621
0.528206
0.540239
0.552315
0.564437
0.576603
0.588818
0.601092
0.613422
0.625805
0.63825
0.650765
0.663347
0.675993
0.688715
0.701512
0.71437
0.727272
0.740197
0.753116
0.76601
0.778863
0.791648
0.804334
0.816904
0.829343
0.841619
0.853701
0.865573
0.877206
0.888566
0.899625
0.910349
0.920701
0.930643
0.940141
0.949154
0.957632
0.96554
0.972836
0.979465
0.985407
0.990673
0.995294
0.999309
1.00275
1.00567
1.00809
1.01006
1.01163
1.01284
1.01372
1.01433
1.01471
1.01491
1.01496
1.01491
1.01481
1.0147
1.01463
1.01896
1.01903
1.01914
1.01924
1.01928
1.01923
1.01904
1.01866
1.01805
1.01717
1.01596
1.0144
1.01243
1.01001
1.00711
1.00367
0.999661
0.995049
0.989795
0.983866
0.977251
0.969973
0.962081
0.953618
0.944627
0.935151
0.925227
0.914897
0.904197
0.893162
0.881826
0.870221
0.858374
0.846314
0.834066
0.821657
0.809111
0.796448
0.783694
0.77087
0.758
0.745108
0.732214
0.719339
0.706508
0.693742
0.681046
0.668423
0.65587
0.643385
0.630964
0.618604
0.606302
0.594057
0.581865
0.569724
0.557631
0.545581
0.533573
0.521604
0.509672
0.497773
0.485903
0.474062
0.462243
0.450446
0.438665
0.426901
0.415149
0.40341
0.391693
0.380004
0.368354
0.356754
0.345212
0.333737
0.32234
0.31103
0.299817
0.288712
0.277724
0.266864
0.256142
0.24557
0.235157
0.224917
0.214859
0.204996
0.19534
0.185903
0.176696
0.167733
0.159024
0.150572
0.14238
0.134451
0.126788
0.119392
0.112268
0.105417
0.0988426
0.0925462
0.0865304
0.0807978
0.0753508
0.0701917
0.0653226
0.0607454
0.0564623
0.0524751
0.0487861
0.0453968
0.0423089
0.0395236
0.0370433
0.0348696
0.0330022
0.0314433
0.0301946
0.0292562
0.0286292
0.0283122
0.0282332
0.0282358
0.0282358
0.0282358
0.0282358
0.0282358
0.0282358
0.0282358
0.0282358
0.0282358
0.0282358
0.0282358
0.0282358
0.0282358
0.0282358
0.0282358
0.0282358
0.0282358
0.0282358
0.0282358
0.0282358
0.0282358
0.0282358
0.0282358
0.0282358
0.0282358
0.0282358
0.0282358
0.0282358
0.0282358
0.0282358
0.0282358
0.0282358
0.0282358
0.0282358
0.0282358
0.0282358
0.0282358
0.0282358
0.0282358
0.0282358
0.0282358
0.0282358
0.0282358
0.0282358
0.0282358
0.0282358
0.0282358
0.0282358
0.0282358
0.0282358
0.0282358
0.0282358
0.0282358
0.0282358
0.0282358
0.0282358
0.0282358
0.0282358
0.0282358
0.0282358
0.0282358
0.0282358
0.0282358
0.0282358
0.0282358
0.0282358
0.0282358
0.0282358
0.0282358
0.0282358
0.0282358
0.0282358
0.0282358
0.0282358
0.0282358
0.0282358
0.0282358
0.0282358
0.0282358
0.0282358
0.0282358
0.0282358
0.0282358
0.0282358
0.0282358
0.0282358
0.0282358
0.0282358
0.0282358
0.0282358
0.0282358
0.0282358
0.0282358
0.0282358
0.0282358
0.0282358
0.0282358
0.0282358
0.0282358
0.0282358
0.0282358
0.0282358
0.0282358
0.0282358
0.0282358
0.0282358
0.0282358
0.0282358
0.0282358
0.0282358
0.0282358
0.0282358
0.0282358
0.0282358
0.0282358
0.0282358
0.0282358
0.0282358
0.0282358
0.0282358
0.0282358
0.0282358
0.0282358
0.0282358
0.0282358
0.0282358
0.0282358
0.0282358
0.0282358
0.0282358
0.0282358
0.0282358
0.0282358
0.0282358
0.0282358
0.0282358
0.0282358
0.0282358
0.0282358
0.0282358
0.0282358
0.0282358
0.0282358
0.0282358
0.0282358
0.0282358
0.0282358
0.0282358
0.0282358
0.0282358
0.0282358
0.0282358
0.0282358
0.0282358
0.0282332
0.0283122
0.0286292
0.0292562
0.0301946
0.0314433
0.0330022
0.0348696
0.0370433
0.0395242
0.0423096
0.0453967
0.0487855
0.0524754
0.0564625
0.0607441
0.0653223
0.0701924
0.0753499
0.0807981
0.0865316
0.0925454
0.0988424
0.105419
0.112268
0.119391
0.126787
0.134452
0.14238
0.150573
0.159026
0.167733
0.176697
0.185905
0.19534
0.204994
0.214859
0.224918
0.235156
0.245568
0.256143
0.266863
0.277725
0.288715
0.299818
0.311028
0.32234
0.333739
0.345211
0.356752
0.368355
0.380004
0.391689
0.403409
0.415151
0.4269
0.438667
0.450449
0.462243
0.474059
0.485903
0.497775
0.509671
0.521603
0.533574
0.545581
0.557631
0.569727
0.581867
0.594055
0.606303
0.618607
0.630964
0.643382
0.65587
0.668425
0.681044
0.693739
0.706509
0.719339
0.732214
0.745111
0.758002
0.770868
0.783694
0.796451
0.809111
0.821654
0.834066
0.846316
0.858372
0.870218
0.881826
0.893162
0.904198
0.914899
0.925228
0.935149
0.944627
0.95362
0.96208
0.969972
0.977251
0.983866
0.989795
0.99505
0.999662
1.00367
1.00711
1.01001
1.01243
1.0144
1.01597
1.01717
1.01805
1.01866
1.01904
1.01923
1.01928
1.01924
1.01914
1.01903
1.01896
1.02335
1.02343
1.02353
1.02363
1.02368
1.02363
1.02344
1.02306
1.02245
1.02157
1.02037
1.01881
1.01684
1.01443
1.01153
1.0081
1.0041
0.999498
0.994256
0.98834
0.981739
0.974477
0.966602
0.958158
0.949186
0.939731
0.929829
0.919521
0.908845
0.897834
0.886523
0.874942
0.863121
0.851087
0.838866
0.826485
0.813965
0.80133
0.788604
0.775808
0.762966
0.750102
0.737236
0.724389
0.711587
0.698848
0.68618
0.673584
0.661059
0.648601
0.636207
0.623874
0.611599
0.59938
0.587215
0.575101
0.563034
0.55101
0.539028
0.527086
0.51518
0.503307
0.491463
0.479647
0.467854
0.456082
0.444328
0.432589
0.420863
0.409149
0.397457
0.385794
0.37417
0.362595
0.351078
0.339628
0.328256
0.316971
0.305782
0.294701
0.283737
0.272901
0.262203
0.251653
0.241264
0.231045
0.221009
0.211168
0.201533
0.192116
0.18293
0.173986
0.165296
0.156862
0.148689
0.140777
0.13313
0.125751
0.118642
0.111806
0.105246
0.0989632
0.0929606
0.0872405
0.0818053
0.0766575
0.071799
0.0672318
0.062958
0.0589795
0.0552986
0.0519166
0.0488355
0.0460563
0.0435814
0.0414124
0.0395491
0.0379935
0.0367476
0.0358112
0.0351856
0.0348693
0.0347904
0.0347931
0.0347931
0.0347931
0.0347931
0.0347931
0.0347931
0.0347931
0.0347931
0.0347931
0.0347931
0.0347931
0.0347931
0.0347931
0.0347931
0.0347931
0.0347931
0.0347931
0.0347931
0.0347931
0.0347931
0.0347931
0.0347931
0.0347931
0.0347931
0.0347931
0.0347931
0.0347931
0.0347931
0.0347931
0.0347931
0.0347931
0.0347931
0.0347931
0.0347931
0.0347931
0.0347931
0.0347931
0.0347931
0.0347931
0.0347931
0.0347931
0.0347931
0.0347931
0.0347931
0.0347931
0.0347931
0.0347931
0.0347931
0.0347931
0.0347931
0.0347931
0.0347931
0.0347931
0.0347931
0.0347931
0.0347931
0.0347931
0.0347931
0.0347931
0.0347931
0.0347931
0.0347931
0.0347931
0.0347931
0.0347931
0.0347931
0.0347931
0.0347931
0.0347931
0.0347931
0.0347931
0.0347931
0.0347931
0.0347931
0.0347931
0.0347931
0.0347931
0.0347931
0.0347931
0.0347931
0.0347931
0.0347931
0.0347931
0.0347931
0.0347931
0.0347931
0.0347931
0.0347931
0.0347931
0.0347931
0.0347931
0.0347931
0.0347931
0.0347931
0.0347931
0.0347931
0.0347931
0.0347931
0.0347931
0.0347931
0.0347931
0.0347931
0.0347931
0.0347931
0.0347931
0.0347931
0.0347931
0.0347931
0.0347931
0.0347931
0.0347931
0.0347931
0.0347931
0.0347931
0.0347931
0.0347931
0.0347931
0.0347931
0.0347931
0.0347931
0.0347931
0.0347931
0.0347931
0.0347931
0.0347931
0.0347931
0.0347931
0.0347931
0.0347931
0.0347931
0.0347931
0.0347931
0.0347931
0.0347931
0.0347931
0.0347931
0.0347931
0.0347931
0.0347931
0.0347931
0.0347931
0.0347931
0.0347931
0.0347931
0.0347931
0.0347931
0.0347931
0.0347931
0.0347931
0.0347931
0.0347931
0.0347931
0.0347931
0.0347931
0.0347904
0.0348693
0.0351856
0.0358112
0.0367476
0.0379935
0.0395491
0.0414124
0.0435814
0.0460568
0.0488362
0.0519165
0.055298
0.0589798
0.0629582
0.0672304
0.0717987
0.0766582
0.0818045
0.0872407
0.0929618
0.0989624
0.105246
0.111808
0.118642
0.125749
0.13313
0.140778
0.148688
0.156864
0.165298
0.173986
0.182931
0.192119
0.201533
0.211166
0.221009
0.231047
0.241262
0.251652
0.262203
0.2729
0.283738
0.294705
0.305783
0.316968
0.328256
0.339631
0.351077
0.362593
0.374171
0.385795
0.397454
0.409149
0.420865
0.432588
0.444329
0.456086
0.467854
0.479644
0.491463
0.503309
0.515178
0.527084
0.539029
0.55101
0.563034
0.575104
0.587217
0.599379
0.6116
0.623877
0.636207
0.648598
0.661059
0.673586
0.686178
0.698846
0.711587
0.724389
0.737236
0.750105
0.762968
0.775806
0.788604
0.801334
0.813965
0.826481
0.838866
0.851089
0.863119
0.874939
0.886523
0.897834
0.908845
0.919523
0.92983
0.939729
0.949186
0.95816
0.966601
0.974476
0.981739
0.98834
0.994256
0.999499
1.0041
1.0081
1.01153
1.01443
1.01684
1.01881
1.02037
1.02157
1.02245
1.02306
1.02344
1.02363
1.02368
1.02363
1.02353
1.02343
1.02335
1.02782
1.0279
1.028
1.0281
1.02815
1.0281
1.0279
1.02753
1.02692
1.02604
1.02484
1.02329
1.02133
1.01892
1.01602
1.0126
1.00861
1.00402
0.99879
0.992887
0.986301
0.979055
0.971197
0.962772
0.95382
0.944386
0.934506
0.924221
0.913568
0.902582
0.891296
0.879741
0.867946
0.855939
0.843745
0.831391
0.8189
0.806293
0.793594
0.780827
0.768014
0.755178
0.742341
0.729522
0.716748
0.704038
0.691398
0.67883
0.666333
0.653903
0.641536
0.62923
0.616983
0.604791
0.592653
0.580565
0.568525
0.556528
0.544573
0.532657
0.520777
0.508931
0.497113
0.485324
0.473557
0.461812
0.450083
0.438371
0.42667
0.414983
0.403317
0.391679
0.380081
0.368532
0.35704
0.345616
0.334269
0.323009
0.311845
0.300788
0.289849
0.279036
0.268362
0.257836
0.24747
0.237274
0.22726
0.217441
0.207827
0.198431
0.189265
0.180342
0.171671
0.163256
0.155101
0.147206
0.139577
0.132214
0.125121
0.1183
0.111754
0.105485
0.0994961
0.0937887
0.0883657
0.0832293
0.0783816
0.0738245
0.0695602
0.0655906
0.0619178
0.0585434
0.055469
0.052696
0.0502266
0.0480625
0.0462033
0.0446512
0.043408
0.0424737
0.0418495
0.0415338
0.0414552
0.0414578
0.0414578
0.0414578
0.0414578
0.0414578
0.0414578
0.0414578
0.0414578
0.0414578
0.0414578
0.0414578
0.0414578
0.0414578
0.0414578
0.0414578
0.0414578
0.0414578
0.0414578
0.0414578
0.0414578
0.0414578
0.0414578
0.0414578
0.0414578
0.0414578
0.0414578
0.0414578
0.0414578
0.0414578
0.0414578
0.0414578
0.0414578
0.0414578
0.0414578
0.0414578
0.0414578
0.0414578
0.0414578
0.0414578
0.0414578
0.0414578
0.0414578
0.0414578
0.0414578
0.0414578
0.0414578
0.0414578
0.0414578
0.0414578
0.0414578
0.0414578
0.0414578
0.0414578
0.0414578
0.0414578
0.0414578
0.0414578
0.0414578
0.0414578
0.0414578
0.0414578
0.0414578
0.0414578
0.0414578
0.0414578
0.0414578
0.0414578
0.0414578
0.0414578
0.0414578
0.0414578
0.0414578
0.0414578
0.0414578
0.0414578
0.0414578
0.0414578
0.0414578
0.0414578
0.0414578
0.0414578
0.0414578
0.0414578
0.0414578
0.0414578
0.0414578
0.0414578
0.0414578
0.0414578
0.0414578
0.0414578
0.0414578
0.0414578
0.0414578
0.0414578
0.0414578
0.0414578
0.0414578
0.0414578
0.0414578
0.0414578
0.0414578
0.0414578
0.0414578
0.0414578
0.0414578
0.0414578
0.0414578
0.0414578
0.0414578
0.0414578
0.0414578
0.0414578
0.0414578
0.0414578
0.0414578
0.0414578
0.0414578
0.0414578
0.0414578
0.0414578
0.0414578
0.0414578
0.0414578
0.0414578
0.0414578
0.0414578
0.0414578
0.0414578
0.0414578
0.0414578
0.0414578
0.0414578
0.0414578
0.0414578
0.0414578
0.0414578
0.0414578
0.0414578
0.0414578
0.0414578
0.0414578
0.0414578
0.0414578
0.0414578
0.0414578
0.0414578
0.0414578
0.0414578
0.0414578
0.0414578
0.0414578
0.0414578
0.0414578
0.0414552
0.0415338
0.0418495
0.0424737
0.043408
0.0446512
0.0462033
0.0480625
0.0502266
0.0526966
0.0554698
0.0585432
0.0619172
0.0655908
0.0695604
0.0738232
0.0783812
0.08323
0.0883648
0.093789
0.0994973
0.105485
0.111754
0.118301
0.125121
0.132212
0.139576
0.147207
0.1551
0.163257
0.171673
0.180341
0.189266
0.198434
0.207827
0.217439
0.227261
0.237275
0.247468
0.257835
0.268363
0.279036
0.28985
0.300792
0.311846
0.323006
0.334269
0.345618
0.357039
0.36853
0.380082
0.39168
0.403314
0.414982
0.426672
0.438369
0.450084
0.461815
0.473557
0.485321
0.497113
0.508933
0.520776
0.532656
0.544574
0.556528
0.568526
0.580568
0.592655
0.60479
0.616984
0.629233
0.641536
0.6539
0.666333
0.678832
0.691396
0.704036
0.716749
0.729522
0.742341
0.755181
0.768016
0.780825
0.793595
0.806296
0.8189
0.831388
0.843745
0.855941
0.867944
0.879738
0.891296
0.902582
0.913569
0.924223
0.934507
0.944384
0.95382
0.962774
0.971197
0.979053
0.986301
0.992887
0.99879
1.00402
1.00861
1.0126
1.01602
1.01892
1.02132
1.02329
1.02484
1.02604
1.02692
1.02753
1.0279
1.0281
1.02815
1.0281
1.028
1.0279
1.02782
1.03237
1.03244
1.03255
1.03264
1.03269
1.03264
1.03245
1.03207
1.03147
1.03059
1.02939
1.02784
1.02588
1.02348
1.02059
1.01718
1.0132
1.00862
1.0034
0.997508
0.990937
0.983708
0.975868
0.967462
0.95853
0.949117
0.93926
0.928998
0.918369
0.907407
0.896147
0.884618
0.87285
0.860871
0.848704
0.836378
0.823915
0.811336
0.798667
0.785928
0.773144
0.760338
0.747529
0.73474
0.721995
0.709313
0.696702
0.684162
0.671693
0.659291
0.646953
0.634674
0.622455
0.610291
0.59818
0.58612
0.574107
0.562137
0.550209
0.53832
0.526467
0.514647
0.502857
0.491093
0.479354
0.467635
0.455932
0.444247
0.432573
0.420912
0.409272
0.397661
0.386089
0.374566
0.3631
0.351702
0.340381
0.329146
0.318007
0.306976
0.296061
0.285273
0.274623
0.264121
0.253778
0.243605
0.233614
0.223817
0.214225
0.20485
0.195705
0.186802
0.17815
0.169754
0.161617
0.153741
0.146129
0.138782
0.131705
0.1249
0.118369
0.112115
0.106139
0.100444
0.0950335
0.0899088
0.085072
0.0805253
0.0762706
0.07231
0.0686455
0.0652787
0.0622113
0.0594445
0.0569807
0.0548215
0.0529665
0.0514179
0.0501776
0.0492454
0.0486226
0.0483076
0.0482292
0.0482318
0.0482318
0.0482318
0.0482318
0.0482318
0.0482318
0.0482318
0.0482318
0.0482318
0.0482318
0.0482318
0.0482318
0.0482318
0.0482318
0.0482318
0.0482318
0.0482318
0.0482318
0.0482318
0.0482318
0.0482318
0.0482318
0.0482318
0.0482318
0.0482318
0.0482318
0.0482318
0.0482318
0.0482318
0.0482318
0.0482318
0.0482318
0.0482318
0.0482318
0.0482318
0.0482318
0.0482318
0.0482318
0.0482318
0.0482318
0.0482318
0.0482318
0.0482318
0.0482318
0.0482318
0.0482318
0.0482318
0.0482318
0.0482318
0.0482318
0.0482318
0.0482318
0.0482318
0.0482318
0.0482318
0.0482318
0.0482318
0.0482318
0.0482318
0.0482318
0.0482318
0.0482318
0.0482318
0.0482318
0.0482318
0.0482318
0.0482318
0.0482318
0.0482318
0.0482318
0.0482318
0.0482318
0.0482318
0.0482318
0.0482318
0.0482318
0.0482318
0.0482318
0.0482318
0.0482318
0.0482318
0.0482318
0.0482318
0.0482318
0.0482318
0.0482318
0.0482318
0.0482318
0.0482318
0.0482318
0.0482318
0.0482318
0.0482318
0.0482318
0.0482318
0.0482318
0.0482318
0.0482318
0.0482318
0.0482318
0.0482318
0.0482318
0.0482318
0.0482318
0.0482318
0.0482318
0.0482318
0.0482318
0.0482318
0.0482318
0.0482318
0.0482318
0.0482318
0.0482318
0.0482318
0.0482318
0.0482318
0.0482318
0.0482318
0.0482318
0.0482318
0.0482318
0.0482318
0.0482318
0.0482318
0.0482318
0.0482318
0.0482318
0.0482318
0.0482318
0.0482318
0.0482318
0.0482318
0.0482318
0.0482318
0.0482318
0.0482318
0.0482318
0.0482318
0.0482318
0.0482318
0.0482318
0.0482318
0.0482318
0.0482318
0.0482318
0.0482318
0.0482318
0.0482318
0.0482318
0.0482318