/*--------------------------------*- C++ -*----------------------------------*\
| =========                 |                                                 |
| \\      /  F ield         | OpenFOAM: The Open Source CFD Toolbox           |
|  \\    /   O peration     | Version:  v2006                                 |
|   \\  /    A nd           | Website:  www.openfoam.com                      |
|    \\/     M anipulation  |                                                 |
\*---------------------------------------------------------------------------*/
FoamFile
{
    version     2.0;
    format      ascii;
    class       volScalarField;
    location    "0";
    object      Omega;
}
// * * * * * * * * * * * * * * * * * * * * * * * * * * * * * * * * * * * * * //

dimensions      [0 0 -1 0 0 0 0];


internalField   nonuniform List<scalar> 
80000
(
4.15624
4.14026
4.1353
4.13918
4.14629
4.15172
4.15298
4.14791
4.135
4.10881
4.06985
4.01474
3.94446
3.85401
3.74649
3.61901
3.47017
3.30421
3.11903
2.91391
2.69139
2.46014
2.23228
2.01054
1.79777
1.59766
1.40933
1.23497
1.07391
0.926425
0.791514
0.669091
0.55799
0.457371
0.366747
0.285142
0.211783
0.14602
0.0871629
0.0346233
0.0121582
0.0536646
0.0905324
0.123115
0.151895
0.177427
0.200231
0.220637
0.238999
0.255558
0.270517
0.284082
0.296366
0.307595
0.317773
0.32713
0.335681
0.343491
0.350654
0.357258
0.363317
0.368945
0.37408
0.378866
0.383277
0.387351
0.391011
0.394447
0.397439
0.399907
0.402146
0.403937
0.405545
0.406915
0.408071
0.409027
0.409804
0.410435
0.410884
0.411214
0.411444
0.411535
0.411542
0.411479
0.411294
0.411062
0.410795
0.410486
0.410153
0.409848
0.409561
0.409418
0.409501
0.409696
0.409982
0.410349
0.410769
0.411242
0.411826
0.412445
0.413151
0.413916
0.414754
0.415655
0.416628
0.417686
0.418787
0.419961
0.421171
0.422421
0.423726
0.425036
0.426387
0.427713
0.429049
0.430475
0.431831
0.433273
0.434864
0.436754
0.439012
0.443194
0.449578
0.453471
0.45443
0.454629
0.453716
0.452151
0.449873
0.447025
0.443613
0.439695
0.435291
0.430428
0.425128
0.41941
0.41329
0.406787
0.399913
0.392682
0.385109
0.377205
0.368983
0.360455
0.351632
0.342527
0.333148
0.323506
0.313613
0.303478
0.293113
0.282528
0.271732
0.260736
0.249548
0.238178
0.226638
0.214936
0.203083
0.191085
0.178954
0.166698
0.154327
0.141851
0.129278
0.116617
0.103877
0.0910659
0.0781933
0.0652687
0.0523
0.0392955
0.0262623
0.0132092
0.000144205
0.0129252
0.0259912
0.0390473
0.0520869
0.0651035
0.0780905
0.0910406
0.103947
0.116803
0.129603
0.142341
0.155012
0.167609
0.180126
0.192558
0.204898
0.217142
0.229286
0.241324
0.253252
0.265063
0.276754
0.288321
0.29976
0.311066
0.322235
0.333264
0.344147
0.354882
0.365466
0.375895
0.386167
0.396277
0.406223
0.416002
0.425611
0.435048
0.444311
0.453397
0.462303
0.471028
0.479569
0.487924
0.496092
0.504071
0.511859
0.519455
0.526855
0.534061
0.54107
0.547883
0.554495
0.560906
0.567117
0.573124
0.578928
0.584529
0.589924
0.595114
0.600097
0.604874
0.609441
0.6138
0.61795
0.621891
0.62562
0.629139
0.632447
0.635542
0.638424
0.641093
0.643548
0.645787
0.647812
0.649618
0.651207
0.652577
0.653727
0.654654
0.655357
0.655833
0.656078
0.656088
0.655858
0.655387
0.65467
0.653705
0.65249
0.651022
0.649297
0.647311
0.645058
0.642526
0.639715
0.636594
0.633176
0.629377
0.625264
0.620584
0.615592
0.60947
0.60307
0.593202
0.580544
0.572959
0.569749
0.56861
0.569441
0.571871
0.575824
0.580872
0.58739
0.595085
0.603795
0.6137
0.624797
0.637095
0.650136
0.664682
0.68048
0.696838
0.714964
0.734336
0.754298
0.776216
0.799317
0.823708
0.849164
0.876764
0.905898
0.935962
0.968524
1.00299
1.0384
1.07746
1.11874
1.16151
1.20636
1.25395
1.30385
1.35412
1.40755
1.46367
1.51947
1.57907
1.64019
1.70236
1.76549
1.83189
1.9001
1.96725
2.03722
2.10884
2.181
2.25247
2.32548
2.40095
2.47003
2.54297
2.61584
2.68644
2.75795
2.83184
2.90774
2.98035
3.05713
3.13677
3.2148
3.29728
3.38165
3.46804
3.55416
3.64851
3.74461
3.84325
3.94439
4.05454
4.17057
4.28739
4.41636
4.55716
4.70469
4.86404
5.03063
5.20202
5.37312
5.55694
5.74269
5.92642
6.11027
6.30059
6.49088
6.67178
6.85352
7.03393
7.20325
7.36368
7.51545
7.6492
7.76034
7.85408
7.9243
7.95347
7.95183
7.91484
7.81915
7.66725
7.4746
7.25161
7.01632
6.76877
6.51709
6.26593
6.019
5.78127
5.55202
5.33643
5.1327
4.94593
4.77582
4.62267
4.48661
4.37007
4.27523
4.20004
4.15751
4.13741
4.12902
4.12944
4.13344
4.13641
4.13582
4.12946
4.11562
4.08964
4.05144
3.99809
3.92999
3.84304
3.73937
3.61659
3.47349
3.31334
3.1346
2.93671
2.72206
2.4983
2.27623
2.05918
1.85002
1.65229
1.46565
1.29208
1.13124
0.983396
0.847787
0.724282
0.611907
0.509874
0.417686
0.334469
0.259471
0.192056
0.131568
0.0774252
0.0290825
0.0139427
0.0522569
0.0862368
0.116344
0.143109
0.167053
0.188522
0.207875
0.225363
0.241201
0.25559
0.268661
0.280621
0.291507
0.301519
0.310699
0.319114
0.326851
0.333999
0.340583
0.346701
0.35232
0.357556
0.362402
0.366889
0.370968
0.37477
0.378154
0.381029
0.383635
0.385816
0.38777
0.389476
0.390951
0.392214
0.393282
0.394183
0.394901
0.395477
0.395937
0.396253
0.396466
0.396593
0.396601
0.396542
0.396436
0.396277
0.396087
0.395908
0.395746
0.395695
0.395832
0.396072
0.396395
0.396786
0.397227
0.397714
0.39829
0.398904
0.399588
0.400327
0.401128
0.401985
0.402902
0.403892
0.40492
0.406006
0.407126
0.408276
0.409466
0.410662
0.411881
0.413081
0.414286
0.415551
0.416771
0.418064
0.419498
0.421212
0.423333
0.427007
0.432248
0.435504
0.436342
0.436308
0.435248
0.433519
0.431109
0.428136
0.424616
0.420602
0.416112
0.411179
0.40582
0.400053
0.393897
0.387368
0.38048
0.373246
0.365679
0.357791
0.349595
0.341102
0.332323
0.32327
0.313952
0.304382
0.294567
0.284518
0.274248
0.263764
0.253077
0.242196
0.23113
0.219889
0.208483
0.196922
0.185214
0.173369
0.161394
0.1493
0.137096
0.124791
0.112393
0.0999109
0.0873535
0.0747293
0.0620456
0.0493137
0.0365402
0.0237332
0.0109001
0.001951
0.0148121
0.0276763
0.0405357
0.0533842
0.0662152
0.0790227
0.0917997
0.10454
0.117236
0.129882
0.142472
0.155001
0.167463
0.179851
0.192161
0.204387
0.216522
0.228563
0.240505
0.252343
0.264072
0.275687
0.287184
0.298558
0.309806
0.320924
0.331907
0.342753
0.353458
0.364015
0.374423
0.384682
0.394784
0.404729
0.414514
0.424133
0.433586
0.442871
0.451984
0.460924
0.469689
0.478275
0.48668
0.494903
0.502942
0.510797
0.518463
0.525942
0.53323
0.540325
0.547228
0.553937
0.560451
0.566768
0.572887
0.578807
0.584527
0.590047
0.595367
0.600483
0.605397
0.610107
0.614613
0.618913
0.623009
0.626898
0.630581
0.634056
0.637322
0.64038
0.643228
0.645867
0.648295
0.650514
0.652515
0.654304
0.65588
0.657245
0.65838
0.659305
0.660011
0.66049
0.660744
0.660758
0.660549
0.660092
0.659398
0.658459
0.657283
0.655847
0.65416
0.652213
0.650002
0.647524
0.644763
0.641697
0.638329
0.634596
0.630526
0.625931
0.620952
0.614979
0.608489
0.599215
0.587876
0.580569
0.577138
0.575831
0.576442
0.578649
0.582336
0.587175
0.593413
0.60082
0.60927
0.618887
0.629671
0.64161
0.654389
0.668566
0.683924
0.700015
0.717698
0.736581
0.756233
0.777629
0.800227
0.824101
0.84913
0.876123
0.904585
0.93418
0.966035
0.999711
1.03462
1.07277
1.11302
1.15491
1.19881
1.2453
1.29386
1.34322
1.39542
1.44997
1.50477
1.56288
1.62244
1.68316
1.74501
1.80977
1.87601
1.94189
2.01018
2.07996
2.15024
2.22021
2.2916
2.36452
2.43276
2.50406
2.57505
2.64452
2.7148
2.78724
2.86109
2.93285
3.00816
3.08581
3.16268
3.24343
3.32599
3.41048
3.49549
3.58757
3.68143
3.77809
3.87755
3.98524
4.09805
4.21316
4.33925
4.47613
4.61992
4.77456
4.93588
5.10188
5.2688
5.44668
5.62613
5.80461
5.98348
6.16787
6.35146
6.52776
6.70416
6.87858
7.04296
7.19908
7.34603
7.47618
7.58551
7.67768
7.74645
7.77816
7.77991
7.74691
7.66021
7.52192
7.34466
7.13833
6.91806
6.6853
6.44734
6.20868
5.97309
5.74506
5.52465
5.3163
5.1191
4.9374
4.77133
4.62132
4.48769
4.3727
4.2783
4.20345
4.15799
4.13413
4.12248
4.11966
4.12077
4.12146
4.11918
4.11169
4.09716
4.07153
4.03425
3.9828
3.91707
3.8337
3.73401
3.61602
3.47867
3.32441
3.15211
2.96135
2.7543
2.53774
2.32135
2.10887
1.90326
1.70788
1.52289
1.35009
1.18945
1.04124
0.904913
0.78033
0.66667
0.563205
0.469444
0.384598
0.307945
0.238866
0.17673
0.120969
0.0710503
0.0264944
0.013281
0.0486697
0.0801151
0.108129
0.13323
0.155782
0.176145
0.194579
0.211311
0.226542
0.240412
0.25312
0.264726
0.27541
0.285232
0.294262
0.302585
0.310289
0.317406
0.324028
0.33014
0.335838
0.34113
0.346041
0.350543
0.354727
0.358507
0.361789
0.364767
0.367331
0.369634
0.371676
0.373471
0.375039
0.376398
0.377572
0.378552
0.379376
0.380065
0.380601
0.381019
0.381337
0.38153
0.381641
0.381691
0.381678
0.381627
0.38157
0.381523
0.381563
0.381756
0.382041
0.382399
0.382815
0.383273
0.383772
0.384343
0.384947
0.38561
0.38632
0.387081
0.387889
0.38875
0.389668
0.39062
0.391617
0.392641
0.393687
0.394762
0.395838
0.396925
0.397993
0.399058
0.400165
0.401241
0.402378
0.403647
0.405176
0.407118
0.410322
0.414637
0.417331
0.417992
0.417729
0.41651
0.414618
0.412074
0.408973
0.405345
0.401233
0.396662
0.391657
0.386239
0.380426
0.374237
0.367684
0.360783
0.353547
0.345989
0.33812
0.329952
0.321498
0.312768
0.303771
0.29452
0.285023
0.275291
0.265333
0.255162
0.244784
0.23421
0.223449
0.212511
0.201403
0.190138
0.178722
0.167166
0.155478
0.143666
0.13174
0.119707
0.107579
0.0953624
0.0830652
0.0706975
0.0582649
0.0457775
0.0332436
0.0206713
0.00806815
0.00455889
0.0172018
0.0298527
0.0425054
0.0551522
0.0677869
0.0804038
0.0929955
0.105557
0.118081
0.130561
0.142991
0.155366
0.167679
0.179927
0.192102
0.204199
0.216213
0.228137
0.239969
0.251704
0.263337
0.274862
0.286276
0.297572
0.308749
0.319802
0.330729
0.341522
0.352181
0.3627
0.373076
0.383306
0.393389
0.403319
0.413095
0.422713
0.432169
0.441464
0.450592
0.459554
0.468347
0.476961
0.485405
0.493673
0.501766
0.509671
0.517402
0.524948
0.532299
0.539474
0.546459
0.553252
0.559855
0.56627
0.572489
0.578521
0.584352
0.589988
0.595424
0.600667
0.605711
0.610555
0.6152
0.61964
0.623883
0.627919
0.631759
0.635394
0.638826
0.642054
0.645072
0.647887
0.6505
0.652904
0.655098
0.657076
0.658855
0.660419
0.66177
0.662907
0.663825
0.664533
0.665017
0.665272
0.665308
0.665114
0.664683
0.66401
0.663104
0.661951
0.660561
0.658914
0.657012
0.654851
0.652417
0.649708
0.646709
0.643393
0.639725
0.635713
0.631201
0.626259
0.62042
0.613922
0.605155
0.59483
0.587773
0.584176
0.582708
0.583113
0.585089
0.588522
0.59314
0.599094
0.606212
0.614388
0.623704
0.634171
0.645748
0.658231
0.672029
0.686967
0.702735
0.719971
0.738374
0.757655
0.778533
0.80062
0.823959
0.848505
0.874876
0.902672
0.931724
0.962867
0.995759
1.03007
1.06731
1.10655
1.1475
1.19044
1.2358
1.28306
1.33142
1.38237
1.43541
1.48912
1.54574
1.60375
1.66302
1.72351
1.78663
1.85101
1.91551
1.9821
2.05006
2.1185
2.1869
2.25662
2.32723
2.39442
2.46407
2.53325
2.60149
2.67045
2.74139
2.81332
2.88404
2.95782
3.03355
3.10912
3.18811
3.26882
3.35143
3.43512
3.52493
3.61656
3.71115
3.80875
3.91391
4.02361
4.13672
4.25982
4.39281
4.53278
4.68276
4.83893
4.99968
5.16227
5.33438
5.50781
5.68107
5.85495
6.03359
6.21087
6.38255
6.55378
6.72263
6.88233
7.03439
7.17698
7.30408
7.41184
7.50294
7.57102
7.6055
7.61109
7.58286
7.50548
7.38036
7.21813
7.02775
6.82219
6.60383
6.37922
6.15277
5.92824
5.70969
5.49787
5.29662
5.10573
4.92897
4.76681
4.61978
4.48844
4.37483
4.28078
4.20599
4.15789
4.13048
4.11562
4.10961
4.10785
4.1063
4.10231
4.09369
4.07851
4.05321
4.01688
3.96728
3.90398
3.82412
3.72843
3.61526
3.4836
3.33527
3.16942
2.98575
2.78624
2.57687
2.36625
2.15848
1.95653
1.76364
1.58039
1.40848
1.24812
1.09963
0.962653
0.837044
0.722134
0.617266
0.521952
0.435488
0.357185
0.286439
0.22265
0.165262
0.113755
0.0676573
0.0264056
0.0104063
0.0432067
0.0724899
0.0987691
0.122421
0.143815
0.163213
0.180855
0.196943
0.211627
0.2251
0.237439
0.248809
0.259284
0.268943
0.277861
0.286135
0.293795
0.300933
0.307545
0.313715
0.319461
0.324805
0.329737
0.334316
0.338497
0.342187
0.345546
0.348495
0.351156
0.353539
0.355661
0.357541
0.359194
0.360646
0.361895
0.362968
0.363891
0.364652
0.365279
0.365791
0.366172
0.366455
0.366664
0.366802
0.366889
0.366957
0.367026
0.367158
0.367412
0.367745
0.368139
0.368582
0.369062
0.369572
0.370137
0.370728
0.371374
0.372054
0.372774
0.373534
0.374336
0.375179
0.376056
0.376962
0.37789
0.378834
0.379789
0.380746
0.381696
0.382633
0.383556
0.384504
0.385423
0.386401
0.387496
0.388832
0.390561
0.393296
0.396785
0.39894
0.39939
0.398897
0.397509
0.395448
0.392765
0.389539
0.385803
0.381594
0.376943
0.371864
0.366395
0.360537
0.354315
0.347742
0.340824
0.333593
0.326047
0.3182
0.310064
0.301653
0.292974
0.284039
0.274857
0.265439
0.255794
0.245932
0.235863
0.225597
0.215142
0.204507
0.1937
0.182732
0.171613
0.16035
0.148951
0.137426
0.125783
0.11403
0.102176
0.0902306
0.0782011
0.0660955
0.053922
0.0416882
0.0294026
0.0170732
0.0047088
0.0076842
0.0200989
0.0325265
0.0449609
0.0573956
0.0698235
0.0822385
0.0946343
0.107005
0.119345
0.131647
0.143905
0.156112
0.168265
0.180358
0.192384
0.204341
0.216219
0.228015
0.239725
0.251342
0.262864
0.274286
0.285603
0.29681
0.307902
0.318876
0.329731
0.340459
0.351058
0.361524
0.371857
0.382043
0.392095
0.401995
0.411747
0.421354
0.430797
0.440089
0.449222
0.458192
0.466995
0.475633
0.484109
0.492403
0.500534
0.508486
0.516263
0.523858
0.531274
0.538512
0.545568
0.552434
0.559119
0.565618
0.571932
0.578055
0.583988
0.589732
0.595281
0.600635
0.605794
0.61077
0.615538
0.620116
0.624495
0.628679
0.632664
0.636455
0.640044
0.64343
0.646616
0.649601
0.652387
0.654966
0.657339
0.659512
0.66148
0.663244
0.664789
0.666131
0.667269
0.668189
0.668897
0.669386
0.669657
0.669708
0.669525
0.669123
0.668479
0.667609
0.666487
0.665139
0.663533
0.661685
0.659577
0.657194
0.654539
0.651596
0.648348
0.644755
0.6408
0.636376
0.631483
0.625785
0.619341
0.611048
0.601602
0.5948
0.591096
0.589476
0.589674
0.591429
0.594607
0.598995
0.604668
0.611495
0.619387
0.628403
0.638537
0.64976
0.661927
0.675334
0.689856
0.705277
0.722063
0.739976
0.75885
0.779212
0.800774
0.823567
0.847602
0.873339
0.90047
0.928937
0.95935
0.991451
1.02511
1.06142
1.09965
1.13963
1.18156
1.22577
1.27176
1.31904
1.36871
1.42026
1.4728
1.52792
1.58438
1.64217
1.70124
1.76269
1.82524
1.88828
1.95315
2.01927
2.08589
2.15268
2.22064
2.2891
2.35509
2.42307
2.49051
2.55745
2.62503
2.69444
2.7645
2.83409
2.90627
2.98013
3.05432
3.13153
3.21038
3.29111
3.37332
3.46088
3.55028
3.64275
3.73837
3.84093
3.9476
4.05847
4.17845
4.30756
4.44359
4.58884
4.73987
4.89539
5.05344
5.21977
5.38725
5.55524
5.72397
5.89685
6.06803
6.23488
6.40093
6.56431
6.71935
6.86735
7.0058
7.12976
7.23611
7.32616
7.39393
7.43131
7.44086
7.4177
7.34957
7.23755
7.09012
6.91544
6.72464
6.52061
6.30944
6.09521
5.88182
5.6729
5.46968
5.27571
5.09123
4.91953
4.76137
4.61744
4.48845
4.37627
4.28266
4.20785
4.15712
4.12639
4.10837
4.09923
4.09467
4.09088
4.08519
4.07544
4.05965
4.03466
3.99928
3.9515
3.89063
3.81423
3.72256
3.6142
3.48816
3.34577
3.18639
3.0098
2.81775
2.61555
2.41083
2.20788
2.00969
1.81945
1.63807
1.46718
1.3072
1.15854
1.02097
0.894393
0.778284
0.672037
0.5752
0.487138
0.40719
0.334778
0.269334
0.210312
0.157206
0.109553
0.0668131
0.0285635
0.00560829
0.0361787
0.0636566
0.0884292
0.110871
0.131252
0.149824
0.166786
0.182299
0.196551
0.209636
0.221706
0.23285
0.243147
0.252676
0.261528
0.269742
0.277405
0.284529
0.291179
0.297388
0.303177
0.308543
0.313528
0.318117
0.322219
0.325966
0.329306
0.332331
0.33506
0.337518
0.33971
0.341668
0.343397
0.344919
0.346252
0.347415
0.348402
0.349244
0.349952
0.350524
0.350984
0.351355
0.351643
0.351873
0.352069
0.352252
0.35248
0.352798
0.353178
0.353615
0.354086
0.354579
0.355102
0.355663
0.356253
0.356873
0.357521
0.358203
0.35892
0.359658
0.360434
0.361231
0.362045
0.362876
0.363708
0.364551
0.365378
0.366194
0.366992
0.367766
0.36856
0.369324
0.370134
0.371052
0.372184
0.373675
0.375937
0.378691
0.380331
0.380524
0.379801
0.378234
0.376013
0.373192
0.36984
0.36599
0.361683
0.356946
0.351809
0.34628
0.340379
0.334125
0.32753
0.320617
0.313385
0.305853
0.298031
0.289928
0.281565
0.272937
0.264073
0.254964
0.245628
0.236075
0.226313
0.216353
0.206202
0.19587
0.185366
0.174698
0.163875
0.152906
0.1418
0.130565
0.119209
0.10774
0.0961659
0.0844966
0.0727396
0.060904
0.0489952
0.0370225
0.0249935
0.0129152
0.000797467
0.0113534
0.0235304
0.0357259
0.0479318
0.0601435
0.072355
0.0845581
0.0967462
0.108915
0.121059
0.13317
0.145245
0.157274
0.169254
0.18118
0.193046
0.204847
0.216577
0.228232
0.239805
0.251293
0.262692
0.273996
0.285201
0.296304
0.307302
0.318182
0.328951
0.339598
0.350124
0.360522
0.370794
0.380935
0.390934
0.400798
0.410513
0.420087
0.429509
0.438783
0.447909
0.456874
0.465681
0.474327
0.482808
0.491134
0.499284
0.507264
0.515068
0.522717
0.530175
0.537471
0.54459
0.551516
0.558274
0.564847
0.571243
0.577447
0.583474
0.589301
0.594951
0.600416
0.60569
0.610771
0.615667
0.620371
0.624875
0.629195
0.633322
0.637257
0.640992
0.644527
0.64787
0.65102
0.65397
0.656721
0.659271
0.661621
0.663772
0.665722
0.667465
0.669007
0.67035
0.671477
0.672404
0.673115
0.673611
0.673899
0.673963
0.673797
0.673416
0.672812
0.671969
0.670896
0.669583
0.668024
0.666226
0.664166
0.661851
0.659265
0.656378
0.653194
0.649675
0.645785
0.64145
0.636635
0.63107
0.624736
0.616891
0.608192
0.601662
0.597885
0.596133
0.596131
0.597677
0.600597
0.604741
0.610147
0.616681
0.624276
0.632986
0.642783
0.653647
0.665483
0.678499
0.692591
0.707648
0.723971
0.7414
0.759853
0.779685
0.800693
0.822943
0.84643
0.871533
0.89799
0.925835
0.955499
0.986805
1.01975
1.05512
1.09234
1.13133
1.1722
1.21524
1.25996
1.30612
1.35448
1.40458
1.45586
1.50946
1.56437
1.62064
1.67824
1.738
1.79875
1.86026
1.92338
1.98768
2.05247
2.1176
2.18378
2.25018
2.31484
2.38115
2.44686
2.51245
2.5786
2.64643
2.71471
2.78302
2.8536
2.92564
2.99833
3.07376
3.15074
3.22959
3.31018
3.39551
3.48266
3.57298
3.66649
3.76641
3.87011
3.97856
4.09531
4.22054
4.35245
4.49299
4.63889
4.78917
4.94245
5.10302
5.26468
5.42739
5.59081
5.75781
5.92307
6.08509
6.24587
6.4038
6.55437
6.69815
6.83261
6.95366
7.05846
7.14759
7.21542
7.25562
7.26909
7.25145
7.19253
7.09342
6.96035
6.8013
6.62499
6.43531
6.23756
6.03561
5.83339
5.63426
5.43993
5.2533
5.0753
4.90888
4.75486
4.61418
4.48757
4.37688
4.28379
4.20894
4.15566
4.12174
4.1007
4.0885
4.08121
4.07521
4.0678
4.05698
4.04053
4.01586
3.98135
3.93541
3.877
3.804
3.71635
3.61272
3.49227
3.35581
3.2029
3.03334
2.84872
2.65365
2.45494
2.25693
2.06265
1.87522
1.69585
1.52611
1.36664
1.21789
1.07981
0.952351
0.835094
0.727518
0.629185
0.539537
0.457956
0.383886
0.316785
0.256122
0.20141
0.152191
0.107949
0.0682511
0.0326918
0.000816535
0.0278791
0.0537954
0.0773029
0.0986879
0.118203
0.136058
0.152417
0.167464
0.181306
0.194092
0.205918
0.216867
0.227015
0.236458
0.245238
0.253438
0.26108
0.268224
0.274906
0.281146
0.286959
0.292357
0.297357
0.301878
0.30602
0.30976
0.31315
0.316242
0.319033
0.321542
0.323806
0.325827
0.327626
0.329216
0.330625
0.331846
0.332906
0.333817
0.334577
0.335221
0.335753
0.3362
0.336571
0.336892
0.337193
0.337514
0.3379
0.33834
0.338819
0.339316
0.339834
0.340362
0.340928
0.34151
0.342106
0.342731
0.343373
0.344033
0.34472
0.345425
0.346138
0.346863
0.347593
0.348317
0.349033
0.349734
0.350418
0.351069
0.351697
0.352325
0.352937
0.35357
0.354303
0.355217
0.356444
0.358258
0.360337
0.361483
0.361402
0.36044
0.358691
0.356315
0.353344
0.349864
0.3459
0.3415
0.336681
0.331481
0.325893
0.319948
0.313669
0.307057
0.30014
0.292913
0.285405
0.277612
0.269553
0.261233
0.252667
0.24387
0.234836
0.225589
0.216129
0.206473
0.196628
0.186598
0.176394
0.166026
0.155501
0.144827
0.134014
0.123071
0.112004
0.100823
0.0895331
0.0781442
0.0666651
0.0551026
0.0434658
0.0317591
0.0199941
0.00817519
0.00368853
0.01559
0.0275217
0.0394763
0.0514453
0.0634245
0.0754075
0.0873895
0.0993614
0.111318
0.123255
0.135164
0.147042
0.158883
0.170679
0.182426
0.194119
0.205752
0.217322
0.228821
0.240247
0.251592
0.262854
0.274024
0.285107
0.296091
0.306979
0.317752
0.32842
0.338982
0.349422
0.359744
0.369933
0.380003
0.389945
0.399756
0.409416
0.418955
0.428343
0.437586
0.446686
0.455635
0.464425
0.473064
0.481551
0.489879
0.498041
0.506044
0.513873
0.521543
0.529047
0.536384
0.543547
0.550528
0.557343
0.563984
0.570443
0.576721
0.582825
0.588747
0.59448
0.600039
0.605408
0.610604
0.61561
0.62042
0.625055
0.629502
0.633751
0.637819
0.641691
0.645372
0.648865
0.652161
0.655268
0.658185
0.660898
0.663422
0.665757
0.66788
0.66982
0.671549
0.673089
0.674417
0.675547
0.676473
0.677187
0.677697
0.677993
0.678078
0.677944
0.67759
0.677009
0.676209
0.675174
0.673904
0.672398
0.670649
0.668643
0.666392
0.663867
0.661051
0.657942
0.654493
0.650682
0.646433
0.641709
0.63628
0.630095
0.622674
0.614614
0.608361
0.60454
0.602671
0.602492
0.603823
0.606502
0.610396
0.615521
0.621762
0.629069
0.637454
0.646911
0.657416
0.668905
0.681526
0.695195
0.709847
0.725714
0.742658
0.760658
0.779952
0.800413
0.822097
0.84502
0.869467
0.89524
0.922432
0.951344
0.981849
1.01402
1.04844
1.08465
1.12261
1.16241
1.20426
1.24771
1.29268
1.33972
1.38837
1.43833
1.49041
1.54377
1.5985
1.65457
1.71263
1.77161
1.83151
1.89287
1.95533
2.0183
2.08172
2.14608
2.2105
2.27374
2.33836
2.40238
2.46657
2.53126
2.59747
2.66403
2.73098
2.79991
2.87015
2.94128
3.01489
3.08997
3.16694
3.24582
3.32887
3.41376
3.50197
3.59321
3.69046
3.79126
3.89704
4.0105
4.13183
4.25967
4.39538
4.53612
4.68128
4.82962
4.98452
5.14021
5.29756
5.45576
5.61696
5.77622
5.93326
6.08882
6.24153
6.38748
6.5271
6.65775
6.77605
6.87907
6.96756
7.03546
7.07837
7.09592
7.08397
7.03426
6.94762
6.82876
6.68487
6.52319
6.34775
6.16329
5.97374
5.78275
5.59352
5.40821
5.22906
5.05776
4.89661
4.74689
4.60954
4.48556
4.37646
4.284
4.20913
4.15328
4.11656
4.0925
4.07742
4.06746
4.05927
4.05011
4.03819
4.02118
3.99666
3.96323
3.91894
3.86298
3.79327
3.7096
3.6108
3.49584
3.36533
3.21885
3.05624
2.879
2.69105
2.49845
2.30549
2.11529
1.93084
1.75361
1.58518
1.42634
1.27762
1.13915
1.01087
0.892537
0.783671
0.68388
0.592674
0.509477
0.433761
0.365003
0.3027
0.246375
0.19558
0.149821
0.108667
0.0717072
0.0385077
0.00857404
0.0185032
0.0430994
0.0655051
0.0859837
0.104746
0.121967
0.137826
0.152442
0.165959
0.178477
0.19009
0.200872
0.210917
0.220275
0.229023
0.237197
0.244839
0.252007
0.258712
0.264971
0.270796
0.276226
0.281165
0.285713
0.289844
0.293615
0.297064
0.300197
0.30304
0.305607
0.307931
0.310012
0.311865
0.313512
0.31498
0.316257
0.317374
0.318331
0.319154
0.319866
0.320467
0.32098
0.321431
0.321854
0.322271
0.322729
0.323229
0.323744
0.324271
0.324823
0.325366
0.32593
0.326499
0.32708
0.327673
0.328272
0.328879
0.329504
0.330136
0.330767
0.331407
0.332028
0.332648
0.333236
0.333816
0.334363
0.33487
0.335347
0.335803
0.336247
0.33671
0.337245
0.337933
0.33888
0.340252
0.34171
0.342386
0.342024
0.340827
0.338893
0.336333
0.333218
0.329613
0.325544
0.321052
0.316154
0.310873
0.30524
0.299262
0.292948
0.286334
0.279399
0.272188
0.264693
0.256937
0.248919
0.240656
0.232161
0.22342
0.214477
0.205319
0.195968
0.186418
0.176688
0.166784
0.156713
0.146483
0.136105
0.125587
0.114935
0.104159
0.0932664
0.0822635
0.0711598
0.0599613
0.0486771
0.0373151
0.0258815
0.0143844
0.00283131
0.00877184
0.0204162
0.0320958
0.043802
0.0555263
0.0672633
0.0790106
0.0907605
0.102506
0.114241
0.125961
0.137659
0.14933
0.160969
0.17257
0.184128
0.195635
0.207089
0.218486
0.229818
0.241078
0.252276
0.263384
0.274416
0.285359
0.296211
0.306969
0.317631
0.328183
0.33864
0.348977
0.359203
0.369317
0.379305
0.389166
0.398901
0.408509
0.417983
0.427323
0.436529
0.445594
0.45451
0.46327
0.471895
0.480365
0.488685
0.496849
0.504857
0.512701
0.520389
0.52792
0.535273
0.542477
0.549494
0.556356
0.563046
0.569565
0.575912
0.582074
0.588071
0.59389
0.59953
0.604999
0.610275
0.615379
0.620304
0.625044
0.629597
0.633979
0.638167
0.642169
0.645985
0.649614
0.653065
0.656322
0.659378
0.662263
0.664947
0.667445
0.669748
0.671858
0.673775
0.675498
0.677026
0.678347
0.67948
0.680405
0.681129
0.681651
0.681964
0.68206
0.681956
0.681629
0.681086
0.680319
0.679329
0.678099
0.676653
0.674952
0.673019
0.670824
0.668357
0.665617
0.662588
0.659213
0.655493
0.65134
0.646707
0.641429
0.63541
0.628382
0.620905
0.614912
0.611082
0.609099
0.608749
0.609872
0.612313
0.615966
0.6208
0.626753
0.633761
0.641812
0.650936
0.661073
0.672199
0.684423
0.697667
0.711907
0.727311
0.743761
0.761271
0.780028
0.799941
0.821036
0.843374
0.867158
0.89224
0.918758
0.946892
0.976589
1.00795
1.04142
1.07658
1.11351
1.15221
1.19285
1.23504
1.27879
1.32447
1.37168
1.42027
1.47082
1.5226
1.57579
1.6303
1.68663
1.74383
1.80209
1.86169
1.92229
1.98343
2.04512
2.10765
2.17013
2.23189
2.2948
2.35716
2.41987
2.48305
2.54764
2.61248
2.67799
2.74531
2.81373
2.88327
2.955
3.02815
3.1033
3.18031
3.26119
3.3438
3.42973
3.5187
3.61317
3.71106
3.81415
3.92424
4.04161
4.16527
4.2961
4.43177
4.57171
4.7152
4.86426
5.01419
5.16607
5.31888
5.47434
5.62776
5.77978
5.93012
6.07771
6.21889
6.3545
6.48136
6.5968
6.69837
6.78598
6.85429
6.89977
6.92155
6.91531
6.87456
6.80006
6.69526
6.56616
6.41902
6.25764
6.08642
5.90934
5.72976
5.55058
5.37408
5.20285
5.0383
4.88267
4.73739
4.60365
4.48226
4.37496
4.2833
4.20838
4.14998
4.11066
4.08377
4.06586
4.05323
4.0429
4.03218
4.01901
4.00149
3.97719
3.94462
3.90213
3.84846
3.78215
3.70235
3.60817
3.49874
3.37407
3.23404
3.07835
2.90848
2.72761
2.54122
2.35347
2.16747
1.98618
1.81125
1.64429
1.48622
1.33769
1.1989
1.06991
0.950578
0.84047
0.73928
0.64655
0.561755
0.484398
0.413991
0.35005
0.292108
0.23973
0.19244
0.149814
0.11145
0.0769089
0.0457168
0.0174589
0.00824332
0.0316907
0.0531515
0.0728406
0.0909376
0.107625
0.12303
0.137292
0.150519
0.162808
0.174239
0.184893
0.194844
0.204149
0.212857
0.221016
0.228672
0.235858
0.242564
0.248839
0.254694
0.26006
0.265028
0.269553
0.273714
0.277518
0.281007
0.28419
0.287073
0.289699
0.292065
0.294188
0.296089
0.297795
0.299294
0.300626
0.301789
0.302794
0.303681
0.304432
0.305097
0.305684
0.306229
0.306745
0.307284
0.307832
0.308394
0.308959
0.30953
0.31009
0.310655
0.311214
0.311776
0.312332
0.312891
0.313457
0.314016
0.314572
0.315124
0.315668
0.316192
0.316691
0.317172
0.317612
0.318021
0.318375
0.318701
0.318992
0.319268
0.319549
0.319882
0.32034
0.321
0.32192
0.322818
0.323043
0.322386
0.320949
0.318818
0.316084
0.312825
0.309088
0.304913
0.300328
0.295348
0.290006
0.284316
0.278308
0.271969
0.265335
0.258414
0.251214
0.243734
0.236011
0.228039
0.219831
0.211396
0.20274
0.193886
0.184827
0.175576
0.166135
0.156525
0.146752
0.136817
0.126734
0.11651
0.106151
0.0956656
0.0850618
0.0743478
0.0635294
0.0526156
0.0416129
0.0305286
0.0193723
0.00814828
0.00313534
0.0144711
0.0258526
0.0372729
0.0487248
0.0601986
0.0716863
0.0831874
0.0946963
0.106208
0.117712
0.129206
0.140683
0.152137
0.163565
0.174959
0.186316
0.197629
0.208892
0.220103
0.23126
0.242347
0.253367
0.26432
0.275194
0.285989
0.2967
0.307323
0.317852
0.328279
0.33861
0.348839
0.35895
0.368959
0.378851
0.388641
0.398292
0.407825
0.417227
0.426511
0.435649
0.444663
0.45353
0.462265
0.470846
0.479296
0.487599
0.495749
0.503745
0.511586
0.519282
0.526816
0.534196
0.541408
0.548459
0.555356
0.562085
0.568645
0.575036
0.581267
0.587321
0.593207
0.598917
0.604466
0.609832
0.615022
0.620037
0.624875
0.629538
0.634024
0.63832
0.642448
0.646393
0.650154
0.653732
0.657127
0.660338
0.663367
0.666204
0.668866
0.67133
0.673611
0.675701
0.6776
0.679309
0.680827
0.682154
0.683283
0.684214
0.684946
0.685473
0.685801
0.685924
0.685841
0.685547
0.685041
0.684314
0.683367
0.682191
0.680795
0.679148
0.67728
0.675144
0.672756
0.67009
0.66713
0.663848
0.660214
0.656167
0.651642
0.646507
0.640675
0.634022
0.627045
0.62131
0.6175
0.615423
0.614915
0.61583
0.618042
0.621443
0.626006
0.631661
0.638353
0.646084
0.654859
0.664627
0.675388
0.687202
0.700013
0.713833
0.728752
0.744716
0.761735
0.77995
0.799285
0.819794
0.841517
0.864643
0.889021
0.914822
0.942174
0.971057
1.00158
1.03408
1.0682
1.10406
1.14163
1.18106
1.22197
1.26446
1.30877
1.35453
1.40172
1.45073
1.50093
1.55254
1.60546
1.66006
1.7155
1.77208
1.82988
1.88864
1.94795
2.00785
2.06854
2.12914
2.18935
2.25053
2.31127
2.3724
2.43404
2.49706
2.56014
2.62418
2.68981
2.75647
2.82424
2.89417
2.96552
3.03859
3.11383
3.19249
3.27276
3.3563
3.44306
3.53483
3.62964
3.73
3.8367
3.95
4.06933
4.19545
4.32605
4.46074
4.59914
4.74245
4.88682
5.0332
5.18055
5.3302
5.478
5.6249
5.77006
5.91233
6.04903
6.18062
6.30362
6.41644
6.51655
6.60325
6.67218
6.72016
6.74596
6.74549
6.71368
6.65079
6.55963
6.44496
6.312
6.16465
6.00676
5.84213
5.67395
5.50505
5.33761
5.17434
5.01663
4.86684
4.72626
4.59616
4.47748
4.37224
4.28139
4.20661
4.14569
4.10399
4.07449
4.05377
4.03863
4.02616
4.01387
3.99959
3.98144
3.95742
3.92563
3.88483
3.83354
3.77042
3.69458
3.60494
3.50077
3.38203
3.24834
3.09963
2.93693
2.76323
2.58308
2.4007
2.21908
2.04114
1.86869
1.70336
1.54622
1.398
1.25902
1.12943
1.00916
0.897896
0.795351
0.701139
0.614781
0.535797
0.463761
0.398171
0.338613
0.284647
0.235818
0.191703
0.151925
0.116032
0.0835628
0.0541041
0.0272759
0.00276643
0.0196922
0.0403266
0.059317
0.0768503
0.0930578
0.108079
0.12203
0.135012
0.147092
0.158379
0.168924
0.178809
0.188066
0.196748
0.204909
0.212564
0.219754
0.226473
0.232761
0.238562
0.243942
0.248889
0.253433
0.257623
0.261458
0.264981
0.268191
0.271126
0.27378
0.276175
0.278349
0.280289
0.282021
0.283571
0.284937
0.28613
0.28718
0.288105
0.288919
0.289642
0.290307
0.290921
0.291541
0.292153
0.292763
0.293373
0.293958
0.29453
0.295097
0.295649
0.296187
0.296724
0.297248
0.297761
0.298257
0.298741
0.299211
0.299657
0.300081
0.300464
0.30082
0.30112
0.301389
0.301597
0.301769
0.301889
0.301991
0.302077
0.302202
0.302418
0.302785
0.303274
0.303652
0.303444
0.302485
0.300797
0.298464
0.295565
0.292163
0.288294
0.284005
0.279324
0.274269
0.268869
0.263126
0.257078
0.250725
0.244073
0.237161
0.229966
0.222532
0.214838
0.206919
0.198761
0.190393
0.18183
0.173058
0.164097
0.154949
0.145627
0.136146
0.126506
0.116714
0.10678
0.09671
0.0865168
0.076203
0.0657763
0.0552455
0.044617
0.0338974
0.0230946
0.0122158
0.00126906
0.00974008
0.020805
0.0319185