/*--------------------------------*- C++ -*----------------------------------*\
| =========                 |                                                 |
| \\      /  F ield         | OpenFOAM: The Open Source CFD Toolbox           |
|  \\    /   O peration     | Version:  v2006                                 |
|   \\  /    A nd           | Website:  www.openfoam.com                      |
|    \\/     M anipulation  |                                                 |
\*---------------------------------------------------------------------------*/
FoamFile
{
    version     2.0;
    format      ascii;
    class       volScalarField;
    location    "0";
    object      S;
}
// * * * * * * * * * * * * * * * * * * * * * * * * * * * * * * * * * * * * * //

dimensions      [0 0 -1 0 0 0 0];


internalField   nonuniform List<scalar> 
80000
(
4.15734
4.14077
4.13515
4.13835
4.14474
4.14948
4.15008
4.14432
4.1307
4.10386
4.0643
4.00861
3.93779
3.84691
3.73899
3.61121
3.46225
3.29622
3.1111
2.90636
2.68463
2.45439
2.22745
2.00652
1.79447
1.59498
1.40718
1.23328
1.0726
0.92543
0.790779
0.668563
0.557627
0.457145
0.366631
0.285111
0.211825
0.14613
0.0873575
0.0350486
0.0130841
0.0538315
0.0906174
0.123182
0.151964
0.177498
0.200307
0.220713
0.239076
0.255635
0.270593
0.284159
0.296442
0.30767
0.317848
0.327201
0.335748
0.343557
0.350717
0.357318
0.363373
0.368995
0.374128
0.378908
0.383313
0.387381
0.391041
0.394469
0.397464
0.399947
0.402202
0.404016
0.405645
0.407034
0.408211
0.409189
0.409988
0.41064
0.411114
0.411468
0.41172
0.411837
0.411868
0.411829
0.411672
0.411467
0.411226
0.410945
0.41064
0.410363
0.410106
0.409986
0.41008
0.410283
0.410577
0.410952
0.411381
0.411863
0.412454
0.413082
0.413795
0.414568
0.415414
0.416324
0.417305
0.41837
0.419479
0.42066
0.421878
0.423137
0.424448
0.425766
0.427122
0.428457
0.429799
0.431228
0.432591
0.43404
0.435633
0.437528
0.43978
0.443781
0.449793
0.453481
0.454436
0.454634
0.45372
0.452154
0.449876
0.447028
0.443616
0.439699
0.435294
0.430432
0.425131
0.419414
0.413294
0.406791
0.399917
0.392687
0.385114
0.37721
0.368989
0.360461
0.351638
0.342533
0.333155
0.323513
0.31362
0.303486
0.293122
0.282537
0.271742
0.260746
0.249559
0.23819
0.22665
0.214949
0.203097
0.1911
0.17897
0.166715
0.154346
0.141873
0.129302
0.116643
0.103907
0.0911004
0.0782338
0.0653174
0.0523609
0.0393768
0.026384
0.0134498
0.00253684
0.0131708
0.026114
0.039129
0.0521479
0.0651522
0.0781308
0.091075
0.103977
0.116829
0.129626
0.142362
0.155032
0.167627
0.180142
0.192573
0.204912
0.217155
0.229298
0.241336
0.253263
0.265073
0.276764
0.28833
0.299769
0.311074
0.322242
0.333271
0.344154
0.354889
0.365473
0.375901
0.386173
0.396283
0.406228
0.416007
0.425615
0.435053
0.444315
0.453401
0.462307
0.471032
0.479573
0.487928
0.496095
0.504074
0.511862
0.519458
0.526858
0.534064
0.541073
0.547885
0.554497
0.560908
0.567119
0.573126
0.57893
0.584531
0.589926
0.595115
0.600099
0.604875
0.609443
0.613801
0.617952
0.621892
0.625621
0.62914
0.632448
0.635543
0.638425
0.641094
0.643549
0.645788
0.647812
0.649619
0.651208
0.652578
0.653728
0.654655
0.655357
0.655833
0.656079
0.656088
0.655859
0.655387
0.65467
0.653706
0.652491
0.651023
0.649298
0.647312
0.645059
0.642527
0.639716
0.636595
0.633178
0.629378
0.625266
0.620587
0.615597
0.609475
0.603082
0.59348
0.581295
0.573943
0.570741
0.569597
0.570432
0.57286
0.576814
0.581873
0.588394
0.596092
0.604817
0.614736
0.625837
0.638146
0.651216
0.665767
0.681574
0.697969
0.7161
0.735483
0.755488
0.777418
0.800527
0.824953
0.850452
0.878057
0.90721
0.937329
0.969896
1.00439
1.03985
1.07889
1.12011
1.16289
1.20773
1.25525
1.3051
1.35539
1.40876
1.4648
1.52061
1.58013
1.64116
1.70331
1.76644
1.83271
1.90081
1.96797
2.03786
2.10934
2.18141
2.25287
2.32574
2.40105
2.47026
2.54317
2.616
2.68673
2.75835
2.8322
2.90809
2.98088
3.05768
3.13732
3.21547
3.29798
3.38233
3.46884
3.55513
3.64944
3.74552
3.84432
3.94564
4.05573
4.17177
4.28884
4.41777
4.55834
4.7056
4.86448
5.03046
5.20144
5.37221
5.55529
5.74029
5.92355
6.10688
6.29631
6.48571
6.666
6.84686
7.02617
7.19451
7.35384
7.50428
7.6368
7.74683
7.83911
7.90782
7.9359
7.93298
7.89466
7.79864
7.64751
7.45625
7.23489
7.00113
6.75511
6.50498
6.2553
6.00978
5.77334
5.54531
5.33086
5.12823
4.94246
4.77323
4.62092
4.4857
4.3699
4.27574
4.20115
4.16022
4.13858
4.12838
4.12686
4.1288
4.12979
4.12728
4.11891
4.10302
4.07515
4.0352
3.9802
3.91056
3.82236
3.71759
3.594
3.45057
3.29029
3.11183
2.91513
2.70276
2.48186
2.26246
2.04776
1.84074
1.64482
1.45976
1.28755
1.12784
0.980934
0.846105
0.723234
0.611375
0.50978
0.417957
0.335052
0.260349
0.193252
0.133186
0.0798337
0.0342163
0.0216863
0.0544811
0.0874527
0.117191
0.143772
0.167615
0.189011
0.208317
0.225766
0.241572
0.255944
0.268993
0.280938
0.291811
0.301805
0.310965
0.319369
0.327093
0.334226
0.340793
0.346891
0.352499
0.357716
0.362542
0.367012
0.371085
0.374866
0.378257
0.381175
0.383823
0.386068
0.388082
0.389845
0.391381
0.392707
0.393839
0.394804
0.395592
0.396238
0.396765
0.397154
0.39744
0.397639
0.397727
0.397748
0.39772
0.397642
0.397536
0.397439
0.397361
0.397378
0.397553
0.397819
0.398167
0.398581
0.399048
0.399563
0.40016
0.400798
0.401506
0.402269
0.403094
0.403976
0.404918
0.405929
0.406981
0.40809
0.409234
0.410407
0.411619
0.412836
0.414074
0.415298
0.416522
0.417795
0.419034
0.420344
0.421775
0.423482
0.425537
0.428703
0.432971
0.43566
0.436437
0.436376
0.435303
0.433569
0.431155
0.428179
0.424658
0.420643
0.416153
0.41122
0.405862
0.400095
0.393941
0.387413
0.380526
0.373293
0.365728
0.357842
0.349648
0.341157
0.332381
0.32333
0.314015
0.304448
0.294636
0.284591
0.274326
0.263846
0.253163
0.242287
0.231227
0.219993
0.208593
0.19704
0.185342
0.173506
0.161544
0.149463
0.137275
0.124989
0.112615
0.100162
0.0876426
0.0750688
0.062456
0.0498313
0.0372381
0.0247973
0.0130599
0.00745886
0.0164704
0.0285984
0.0411706
0.0538674
0.0666049
0.0793489
0.0920799
0.104785
0.117454
0.130078
0.142649
0.155164
0.167613
0.17999
0.19229
0.204507
0.216635
0.228669
0.240605
0.252437
0.264161
0.275771
0.287264
0.298634
0.309878
0.320994
0.331974
0.342816
0.353518
0.364073
0.374479
0.384735
0.394835
0.404778
0.414561
0.424178
0.43363
0.442913
0.452025
0.460964
0.469727
0.478311
0.486715
0.494937
0.502976
0.510829
0.518494
0.525972
0.533259
0.540353
0.547255
0.553964
0.560476
0.566793
0.572911
0.57883
0.58455
0.59007
0.595388
0.600504
0.605418
0.610127
0.614633
0.618933
0.623028
0.626916
0.630599
0.634074
0.63734
0.640397
0.643245
0.645884
0.648312
0.650531
0.652532
0.65432
0.655897
0.657261
0.658396
0.659321
0.660027
0.660507
0.660761
0.660775
0.660566
0.66011
0.659416
0.658477
0.657302
0.655865
0.654179
0.652233
0.650023
0.647546
0.644786
0.641722
0.638357
0.634627
0.630564
0.625975
0.621016
0.615074
0.608673
0.600126
0.590006
0.583348
0.580011
0.578727
0.579364
0.581578
0.585278
0.590154
0.596408
0.603834
0.612329
0.62199
0.632798
0.644774
0.657633
0.671836
0.687229
0.703422
0.721134
0.740059
0.759827
0.78127
0.803908
0.827881
0.853032
0.880057
0.908584
0.938325
0.970213
1.00396
1.03903
1.07711
1.11724
1.15912
1.203
1.24931
1.29773
1.34713
1.39915
1.4535
1.50831
1.56619
1.6255
1.68616
1.74796
1.81237
1.87832
1.94418
2.01223
2.08161
2.15164
2.22155
2.29253
2.36508
2.43361
2.50483
2.57571
2.64553
2.71609
2.78845
2.8623
2.93453
3.00992
3.08756
3.16476
3.24561
3.32816
3.41297
3.49843
3.59043
3.68428
3.78137
3.8813
3.98887
4.10174
4.21748
4.34346
4.47965
4.62264
4.77592
4.93554
5.10029
5.26612
5.4419
5.61921
5.79623
5.97348
6.1553
6.33632
6.5107
6.68447
6.85568
7.01711
7.17
7.31308
7.43963
7.54562
7.6336
7.69804
7.72653
7.72464
7.68804
7.60046
7.46429
7.29091
7.08917
6.87331
6.645
6.41151
6.17716
5.94564
5.72139
5.50455
5.29956
5.10558
4.9268
4.76332
4.61579
4.48459
4.37177
4.27934
4.20613
4.16164
4.13552
4.12107
4.11519
4.11302
4.11053
4.10512
4.09439
4.07657
4.04788
4.00776
3.95364
3.88545
3.80007
3.69864
3.57941
3.44157
3.28721
3.11551
2.92676
2.72336
2.51135
2.29927
2.09065
1.88852
1.69614
1.51374
1.34317
1.18439
1.03772
0.902676
0.77914
0.666336
0.56359
0.470432
0.386099
0.309919
0.241321
0.179756
0.124837
0.0765864
0.0373698
0.027704
0.0536545
0.0829044
0.110034
0.134692
0.156966
0.177154
0.195461
0.212095
0.227264
0.241075
0.253739
0.265307
0.27595
0.285729
0.294735
0.303029
0.310703
0.31779
0.324376
0.330464
0.336129
0.341388
0.346268
0.35076
0.354912
0.3587
0.362046
0.365091
0.367756
0.370156
0.372291
0.374184
0.375856
0.377319
0.378598
0.379692
0.38063
0.38143
0.382087
0.382625
0.383061
0.383385
0.383628
0.383806
0.383927
0.384012
0.384089
0.384179
0.384329
0.384588
0.384921
0.385321
0.385776
0.386278
0.386822
0.387429
0.388074
0.388776
0.389525
0.390326
0.391176
0.392078
0.393032
0.394024
0.395059
0.396124
0.39721
0.39832
0.399432
0.40055
0.401657
0.402754
0.403873
0.404976
0.406131
0.407385
0.408871
0.410653
0.413062
0.415938
0.41776
0.418265
0.417925
0.416673
0.414763
0.412207
0.4091
0.405468
0.401354
0.396782
0.391778
0.386362
0.380551
0.374365
0.367815
0.360917
0.353687
0.346134
0.33827
0.330109
0.321661
0.312938
0.30395
0.294707
0.28522
0.275498
0.265552
0.255393
0.245029
0.23447
0.223726
0.212805
0.201718
0.190476
0.179086
0.16756
0.155907
0.144134
0.132256
0.120279
0.108221
0.0960915
0.0839072
0.0716913
0.0594737
0.0473143
0.035339
0.0239074
0.0144849
0.012879
0.0210062
0.0321983
0.0441855
0.0564573
0.0688524
0.0813033
0.0937731
0.106242
0.118692
0.131112
0.143492
0.155825
0.168103
0.18032
0.192468
0.204541
0.216534
0.228439
0.240254
0.251974
0.263592
0.275105
0.286506
0.297792
0.308958
0.320002
0.33092
0.341705
0.352356
0.362869
0.373238
0.383461
0.393538
0.403462
0.413233
0.422846
0.432298
0.441587
0.450712
0.459669
0.468458
0.477068
0.485509
0.493773
0.501864
0.509765
0.517493
0.525036
0.532385
0.539558
0.546539
0.55333
0.559931
0.566344
0.572561
0.578591
0.58442
0.590055
0.595488
0.60073
0.605772
0.610615
0.615259
0.619697
0.623939
0.627974
0.631813
0.635448
0.638878
0.642106
0.645123
0.647937
0.650549
0.652952
0.655147
0.657124
0.658903
0.660467
0.661817
0.662954
0.663872
0.664581
0.665066
0.665321
0.665358
0.665165
0.664735
0.664062
0.663157
0.662005
0.660617
0.658971
0.657071
0.654913
0.652481
0.649777
0.646783
0.643475
0.639817
0.635822
0.631332
0.626441
0.620692
0.614421
0.606775
0.59823
0.59219
0.588827
0.587446
0.587916
0.589925
0.593395
0.598078
0.60407
0.611231
0.619485
0.628877
0.639395
0.651043
0.663652
0.677507
0.692518
0.708443
0.725742
0.74423
0.763691
0.784659
0.806829
0.830333
0.85507
0.881514
0.909432
0.938709
0.969924
1.00295
1.03748
1.07462
1.11371
1.15465
1.19754
1.24263
1.2897
1.33808
1.38876
1.4415
1.49518
1.55145
1.60909
1.66824
1.7286
1.79118
1.85511
1.91953
1.98572
2.05307
2.12112
2.18936
2.25843
2.32851
2.39608
2.46559
2.53467
2.60342
2.67277
2.7436
2.81557
2.88699
2.96089
3.03665
3.11273
3.19187
3.27261
3.35574
3.44007
3.52979
3.62148
3.71674
3.81501
3.92003
4.02987
4.14387
4.26674
4.39865
4.53731
4.68508
4.8386
4.99728
5.15796
5.32668
5.49671
5.66751
5.83862
6.01309
6.18623
6.35465
6.52152
6.68518
6.84002
6.98675
7.12309
7.24433
7.34655
7.43087
7.49207
7.52124
7.52104
7.48733
7.40869
7.28686
7.13063
6.94747
6.74895
6.53776
6.32034
6.10085
5.88292
5.6705
5.46452
5.26872
5.08306
4.91104
4.75313
4.61015
4.48273
4.37265
4.28175
4.20952
4.1618
4.13163
4.11315
4.10309
4.09696
4.0911
4.08286
4.06985
4.05021
4.02076
3.98056
3.92734
3.86073
3.77817
3.68018
3.56541
3.43314
3.2848
3.11996
2.93912
2.74454
2.54127
2.33652
2.13405
1.93688
1.74813
1.56847
1.39963
1.24185
1.0955
0.960297
0.836141
0.722415
0.618537
0.52405
0.438283
0.360604
0.290465
0.227335
0.170788
0.120586
0.0770825
0.0430713
0.0330898
0.0521955
0.0775642
0.102221
0.125
0.145878
0.164929
0.182325
0.198247
0.21279
0.22616
0.238411
0.249701
0.260098
0.269705
0.278568
0.28679
0.2944
0.30148
0.308054
0.314172
0.319869
0.325168
0.330082
0.334618
0.338806
0.342576
0.346022
0.349104
0.351895
0.354406
0.356661
0.358681
0.360477
0.362074
0.363478
0.364709
0.365785
0.366711
0.367505
0.368181
0.368742
0.369206
0.369594
0.369915
0.37019
0.370441
0.370694
0.370979
0.371329
0.371732
0.372188
0.372687
0.373227
0.3738
0.374417
0.375063
0.375764
0.376498
0.377275
0.378093
0.378951
0.379847
0.38078
0.38174
0.382723
0.383724
0.384729
0.385736
0.386731
0.38772
0.388686
0.389652
0.3906
0.391592
0.392651
0.393886
0.395337
0.397031
0.398727
0.399753
0.399926
0.399289
0.397837
0.395739
0.393035
0.389796
0.386052
0.381839
0.377189
0.372111
0.366645
0.360792
0.354576
0.348011
0.341102
0.33388
0.326346
0.318511
0.310389
0.301992
0.293329
0.284412
0.27525
0.265852
0.25623
0.246394
0.236352
0.226116
0.215695
0.205098
0.194333
0.183412
0.172347
0.161144
0.149817
0.138374
0.126829
0.115195
0.103487
0.0917254
0.0799349
0.0681531
0.0564418
0.0449187
0.0338498
0.023961
0.0174919
0.0185423
0.0262589
0.0366626
0.0480426
0.0598425
0.0718491
0.0839649
0.0961373
0.108335
0.120536
0.132726
0.144889
0.157017
0.169102
0.181135
0.19311
0.20502
0.216858
0.228617
0.240293
0.25188
0.263374
0.274771
0.286065
0.29725
0.308322
0.319278
0.330115
0.340827
0.351411
0.361863
0.372183
0.382356
0.392397
0.402285
0.412027
0.421624
0.431057
0.440339
0.449464
0.458426
0.467221
0.475852
0.484321
0.492608
0.500732
0.508678
0.516449
0.524038
0.531449
0.538682
0.545733
0.552594
0.559275
0.565769
0.572079
0.578198
0.584127
0.589868
0.595413
0.600764
0.60592
0.610893
0.615659
0.620234
0.624611
0.628792
0.632775
0.636564
0.640151
0.643535
0.646719
0.649703
0.652487
0.655065
0.657437
0.65961
0.661576
0.66334
0.664885
0.666226
0.667365
0.668285
0.668994
0.669484
0.669756
0.669809
0.669628
0.669228
0.668585
0.667716
0.666597
0.665252
0.663649
0.661804
0.659702
0.657324
0.654678
0.651745
0.648512
0.64494
0.641017
0.636643
0.631843
0.626322
0.620276
0.613432
0.60618
0.600712
0.59742
0.595981
0.596302
0.598132
0.601381
0.605867
0.611609
0.61851
0.626516
0.635644
0.645865
0.6572
0.669535
0.683039
0.697678
0.713308
0.7302
0.74825
0.767362
0.787862
0.809563
0.832584
0.856876
0.882738
0.910057
0.938816
0.969351
1.00165
1.03557
1.07178
1.10985
1.14981
1.19166
1.23554
1.28129
1.32857
1.37787
1.42906
1.48152
1.53617
1.59215
1.64975
1.7086
1.76935
1.83133
1.89419
1.95849
2.02383
2.08992
2.15642
2.22354
2.29136
2.35776
2.42552
2.49288
2.56046
2.62849
2.69779
2.76797
2.8384
2.91074
2.98471
3.05953
3.13695
3.21591
3.29732
3.38032
3.4678
3.55736
3.65069
3.74713
3.84957
3.95648
4.0684
4.18798
4.31564
4.44985
4.59211
4.73963
4.89231
5.04757
5.20932
5.37225
5.53674
5.70149
5.86871
6.0343
6.19649
6.35648
6.5128
6.66113
6.80175
6.93171
7.04766
7.14631
7.22719
7.28576
7.31585
7.31764
7.28749
7.21781
7.11006
6.97047
6.8053
6.62394
6.42959
6.22814
6.02335
5.81893
5.6184
5.42314
5.23663
5.05928
4.89406
4.74175
4.60337
4.47971
4.37233
4.28297
4.2115
4.16067
4.12683
4.10454
4.09049
4.08058
4.07146
4.06046
4.04525
4.02392
3.99375
3.95354
3.90127
3.83629
3.75656
3.66209
3.55182
3.4251
3.28286
3.12495
2.95199
2.76607
2.57138
2.37398
2.17772
1.98556
1.80056
1.62374
1.45675
1.30004
1.1541
1.01879
0.894052
0.779443
0.674439
0.57863
0.491422
0.412215
0.34049
0.275736
0.217503
0.16545
0.119482
0.0799647
0.0495238
0.0378992
0.0503613
0.0717473
0.0938542
0.114895
0.134418
0.152421
0.169002
0.184219
0.198255
0.211165
0.223086
0.234095
0.244294
0.253729
0.262496
0.270631
0.278208
0.285269
0.291847
0.297987
0.303711
0.309049
0.313981
0.318573
0.322765
0.326616
0.330114
0.333298
0.336186
0.338809
0.341176
0.343314
0.345225
0.346942
0.348473
0.349832
0.351027
0.35208
0.352996
0.353795
0.354485
0.355082
0.355601
0.356068
0.356494
0.356907
0.357328
0.357774
0.358249
0.358768
0.359312
0.359883
0.360484
0.361112
0.361774
0.362464
0.363182
0.363935
0.364725
0.365536
0.36638
0.367249
0.368133
0.369037
0.369941
0.37085
0.371742
0.372617
0.373478
0.374304
0.37512
0.375914
0.376725
0.377578
0.378538
0.379619
0.38063
0.381321
0.381619
0.381403
0.380454
0.378785
0.376503
0.373648
0.370274
0.366413
0.362101
0.357364
0.352231
0.346708
0.340817
0.334574
0.327993
0.321096
0.313883
0.306371
0.298571
0.290494
0.282158
0.27356
0.264728
0.255655
0.246358
0.236848
0.227134
0.217225
0.207132
0.196865
0.186434
0.175848
0.165118
0.154255
0.143273
0.132183
0.120999
0.109739
0.0984243
0.087083
0.0757552
0.0645047
0.0534376
0.0427659
0.0329522
0.0251117
0.0216044
0.0244346
0.0319932
0.0418049
0.0526297
0.0639569
0.0755583
0.0873165
0.0991664
0.111069
0.122999
0.134933
0.146859
0.158762
0.170634
0.182464
0.194247
0.205974
0.217638
0.229233
0.240752
0.252191
0.263545
0.274808
0.285975
0.297042
0.308008
0.318858
0.329598
0.340218
0.350719
0.361094
0.371344
0.381464
0.391444
0.401289
0.410986
0.420543
0.429949
0.439208
0.44832
0.457271
0.466065
0.474699
0.483167
0.491482
0.499621
0.507591
0.515385
0.523025
0.530473
0.53776
0.544871
0.55179
0.55854
0.565105
0.571494
0.577692
0.583712
0.589533
0.595177
0.600637
0.605905
0.610981
0.615873
0.620572
0.625072
0.629388
0.633511
0.637442
0.641174
0.644706
0.648046
0.651193
0.654141
0.65689
0.659438
0.661787
0.663936
0.665885
0.667627
0.669168
0.670511
0.671638
0.672566
0.673278
0.673776
0.674066
0.674134
0.67397
0.673591
0.67299
0.67215
0.67108
0.669772
0.668219
0.666427
0.664376
0.662071
0.659499
0.656629
0.653471
0.649987
0.64615
0.641898
0.637231
0.631949
0.626202
0.620075
0.613874
0.608949
0.605785
0.604333
0.604527
0.606203
0.609239
0.613522
0.619036
0.625682
0.633431
0.642293
0.652218
0.663238
0.675287
0.688447
0.702707
0.718022
0.734502
0.752126
0.770874
0.790898
0.812107
0.834652
0.858459
0.883747
0.91046
0.938663
0.968508
1.00007
1.03332
1.06859
1.10566
1.14462
1.18539
1.22805
1.2725
1.31861
1.36653
1.41622
1.46736
1.52039
1.57474
1.63074
1.68801
1.74693
1.807
1.86821
1.93061
1.99396
2.05809
2.12279
2.18795
2.25363
2.3187
2.38473
2.45038
2.51669
2.58333
2.65107
2.71955
2.78883
2.8596
2.93182
3.00526
3.08093
3.15811
3.23779
3.31928
3.40456
3.49199
3.58333
3.67777
3.77759
3.88163
3.9912
4.10736
4.23081
4.36039
4.49723
4.63885
4.78552
4.93513
5.08999
5.24603
5.40421
5.56242
5.72235
5.88063
6.03658
6.18963
6.33874
6.48079
6.6152
6.73909
6.85007
6.94507
7.02279
7.07928
7.11031
7.11427
7.08842
7.02776
6.93372
6.81003
6.66249
6.49781
6.32014
6.13445
5.94425
5.75323
5.56461
5.38027
5.20301
5.03393
4.87566
4.72903
4.59533
4.47539
4.37069
4.28285
4.21204
4.15824
4.12103
4.09521
4.07735
4.06385
4.05158
4.03788
4.02061
3.99764
3.96683
3.92659
3.87533
3.8121
3.73517
3.64429
3.53851
3.41734
3.28125
3.1303
2.96517
2.78775
2.60149
2.41146
2.22145
2.0344
1.85329
1.67939
1.51436
1.35884
1.21337
1.078
0.95276
0.837301
0.731198
0.634073
0.545411
0.464657
0.391316
0.324897
0.264944
0.211072
0.163032
0.120653
0.0843582
0.0562588
0.0426005
0.0487333
0.065712
0.0852408
0.104489
0.122715
0.139741
0.155502
0.170125
0.183638
0.196158
0.207755
0.218533
0.228527
0.237834
0.246493
0.254569
0.262117
0.269158
0.275747
0.281898
0.287668
0.292999
0.297996
0.302612
0.306868
0.310787
0.314359
0.317638
0.320625
0.323341
0.325818
0.328055
0.330087
0.331914
0.333557
0.335027
0.336341
0.337504
0.338535
0.339455
0.34026
0.340986
0.34164
0.342236
0.342809
0.343362
0.343908
0.344468
0.345051
0.345639
0.346251
0.346874
0.347523
0.348192
0.348872
0.349583
0.350311
0.351059
0.351835
0.352625
0.353425
0.354236
0.355055
0.355867
0.356665
0.357446
0.358203
0.358928
0.359617
0.36027
0.360907
0.361525
0.362155
0.362819
0.363498
0.363881
0.363694
0.363322
0.362696
0.361418
0.359523
0.357057
0.354036
0.350526
0.346546
0.342141
0.337323
0.33213
0.326555
0.320626
0.314367
0.307778
0.300889
0.293693
0.286218
0.278463
0.270446
0.262172
0.253656
0.244914
0.235941
0.22676
0.217375
0.2078
0.198045
0.188117
0.178026
0.167787
0.157409
0.146903
0.136287
0.125575
0.114785
0.103941
0.0930699
0.0822152
0.0714399
0.0608434
0.0506035
0.0410547
0.0328876
0.0274446
0.0265345
0.0306135
0.038142
0.0475238
0.0578709
0.0687528
0.0799499
0.0913435
0.102859
0.114452
0.126092
0.137754
0.149423
0.161085
0.172726
0.184337
0.195909
0.207435
0.218909
0.230322
0.241669
0.252943
0.264139
0.275248
0.286274
0.297207
0.308047
0.318775
0.3294
0.339923
0.350326
0.360613
0.370769
0.380808
0.390721
0.400504
0.410138
0.419652
0.429015
0.438236
0.447315
0.456243
0.465013
0.473633
0.482102
0.490413
0.498559
0.506546
0.51436
0.522015
0.529505
0.536829
0.543979
0.550949
0.557752
0.564382
0.57083
0.577098
0.583192
0.589105
0.594828
0.600379
0.60574
0.610928
0.615927
0.62073
0.625359
0.629798
0.634042
0.638105
0.64197
0.645647
0.649135
0.652427
0.65553
0.658444
0.661154
0.663675
0.666007
0.668128
0.670067
0.671794
0.673333
0.674661
0.675792
0.676719
0.677434
0.677946
0.678247
0.678336
0.678206
0.677856
0.677279
0.676483
0.675453
0.67419
0.672692
0.670954
0.66896
0.666725
0.66422
0.661432
0.65836
0.654964
0.651233
0.647109
0.642597
0.637569
0.632164
0.626683
0.62134
0.616926
0.613925
0.612493
0.6126
0.614129
0.616978
0.621057
0.626336
0.632736
0.640239
0.64882
0.658454
0.669164
0.680913
0.693729
0.70762
0.722583
0.738663
0.755864
0.774218
0.793764
0.814495
0.83654
0.859847
0.884547
0.910651
0.938263
0.967419
0.998242
1.03075
1.06509
1.10116
1.1391
1.17877
1.22022
1.26338
1.30826
1.35479
1.40299
1.45273
1.50415
1.55688
1.61127
1.66689
1.72399
1.78218
1.84167
1.90214
1.96352
2.0257
2.08854
2.15175
2.21538
2.27899
2.34326
2.40727
2.47221
2.5374
2.60356
2.67039
2.73839
2.80754
2.87805
2.95001
3.02391
3.09931
3.17721
3.25708
3.34012
3.42543
3.51478
3.60702
3.70421
3.80545
3.91236
4.02502
4.14427
4.26931
4.40064
4.5364
4.67721
4.82098
4.96911
5.11817
5.26996
5.42174
5.57452
5.72545
5.87504
6.02125
6.16344
6.29912
6.42747
6.54556
6.65184
6.74303
6.81802
6.87262
6.90462
6.91107
6.88989
6.83831
6.7574
6.64922
6.51859
6.3705
6.20919
6.03896
5.86331
5.68562
5.50891
5.3355
5.16753
5.00687
4.85544
4.71458
4.58559
4.46952
4.36755
4.28126
4.21105
4.1543
4.11424
4.085
4.06366
4.04674
4.03144
4.0151
3.99582
3.97137
3.93983
3.89982
3.84947
3.78803
3.71386
3.62657
3.52542
3.40974
3.27985
3.13585
2.97845
2.8094
2.63143
2.44878
2.26505
2.08322
1.90612
1.73526
1.5723
1.41807
1.27317
1.13785
1.01215
0.8959
0.78872
0.690297
0.600186
0.517878
0.44291
0.374804
0.313116
0.257444
0.207477
0.162875
0.123545
0.0898835
0.0633281
0.0477461
0.0478696
0.0600428
0.0766236
0.0940048
0.110928
0.126935
0.141963
0.155967
0.169015
0.181149
0.192472
0.203004
0.212838
0.222011
0.230581
0.238615
0.246115
0.253157
0.259743
0.265937
0.271676
0.277091
0.282123
0.28679
0.291115
0.295088
0.298748
0.302101
0.305179
0.307991
0.310563
0.312911
0.315037
0.316956
0.318712
0.320283
0.321693
0.322964
0.324107
0.325137
0.326061
0.3269
0.327669
0.328405
0.329092
0.329741
0.330388
0.331028
0.331665
0.332328
0.332982
0.333644
0.334315
0.334996
0.335689
0.336389
0.3371
0.33783
0.338561
0.339296
0.340038
0.340765
0.341489
0.342174
0.34285
0.343482
0.344075
0.344621
0.345104
0.345565
0.345991
0.34638
0.346731
0.346995
0.346784
0.345826
0.344841
0.3438
0.342194
0.340064
0.337383
0.334201
0.330556
0.326469
0.321971
0.317078
0.31181
0.306197
0.300246
0.293964
0.287388
0.280496
0.273333
0.265892
0.258196
0.250244
0.242053
0.233638
0.224985
0.21614
0.20709
0.197858
0.188441
0.17886
0.169125
0.159244
0.149233
0.139107
0.128883
0.11858
0.108223
0.0978431
0.0874813
0.0772009
0.0670945
0.0573174
0.0481375
0.0400382
0.0338812
0.0309236
0.032122
0.0371176
0.0446814
0.0537558
0.063705
0.0741819
0.0849948
0.0960268
0.107204
0.11848
0.12982
0.141199
0.152597
0.164002
0.175397
0.186774
0.198122
0.209432
0.2207
0.231915
0.243069
0.254169
0.265187
0.276136
0.287003
0.297784
0.308476
0.319076
0.32957
0.339972
0.350258
0.360436
0.370504
0.380449
0.390269
0.399965
0.409536
0.418975
0.428282
0.437457
0.446491
0.455378
0.46411
0.472709
0.481153
0.48945
0.497591
0.505576
0.513399
0.521066
0.528578
0.535912
0.543098
0.550098
0.556943
0.563617
0.570121
0.576453
0.582601
0.588585
0.594391
0.600019
0.605477
0.610741
0.615834
0.62075
0.625479
0.630023
0.634396
0.638576
0.642571
0.646379
0.650002
0.653446
0.656698
0.659749
0.662629
0.665308
0.667801
0.670102
0.672209
0.674123
0.675844
0.677372
0.678692
0.679826
0.680752
0.681478
0.682004
0.682322
0.682425
0.682326
0.682004
0.681467
0.680707
0.679724
0.678504
0.677069
0.675383
0.673468
0.671295
0.668857
0.666156
0.663179
0.659879
0.656269
0.65229
0.647942
0.64319
0.638141
0.633233
0.628625
0.624669
0.621868
0.62047
0.620509
0.62191
0.624585
0.628478
0.633518
0.639681
0.646934
0.655229
0.664583
0.674978
0.686414
0.69889
0.712417
0.727021
0.7427
0.759474
0.777396
0.796471
0.816727
0.838253
0.86104
0.885152
0.910642
0.937643
0.966089
0.996169
1.0279
1.06132
1.09637
1.13329
1.17183
1.21207
1.25394
1.29756
1.34268
1.3894
1.43771
1.48751
1.53861
1.59137
1.64532
1.70059
1.75691
1.81463
1.87318
1.93259
1.99282
2.05377
2.11502
2.17665
2.23873
2.30123
2.3636
2.42709
2.49077
2.55534
2.62054
2.68713
2.75471
2.82349
2.89393
2.96599
3.03956
3.11574
3.1938
3.27474
3.35788
3.44507
3.53508
3.62954
3.72797
3.83214
3.9412
4.05617
4.17659
4.30244
4.43248
4.56734
4.70539
4.8467
4.98907
5.13432
5.27951
5.42529
5.56911
5.71226
5.85168
5.98717
6.11637
6.23887
6.35131
6.45287
6.54065
6.61283
6.66604
6.69893
6.7082
6.69195
6.64923
6.58098
6.48793
6.37358
6.24178
6.09648
5.94147
5.78028
5.61596
5.45118
5.28841
5.13007
4.97777
4.83337
4.69836
4.57426
4.46198
4.36284
4.27821
4.2085
4.14888
4.10627
4.07395
4.04928
4.02905
4.01087
3.99216
3.9708
3.945
3.91287
3.87294
3.8237
3.76395
3.6927
3.60896
3.51226
3.40215
3.27836
3.14134
2.99161
2.83085
2.661
2.48572
2.30837
2.13183
1.95887
1.79118
1.63042
1.47761
1.33342
1.19821
1.07214
0.955156
0.846931
0.747256
0.655716
0.571857
0.495249
0.425449
0.362023
0.304565
0.252744
0.206158
0.16455
0.127885
0.096381
0.0708366
0.05362
0.0485239
0.0552801
0.0684486
0.0837133
0.0991778
0.114183
0.128424
0.141839
0.154411
0.16621
0.177237
0.187559
0.197228
0.206274
0.214777
0.222737
0.230222
0.237248
0.243858
0.250023
0.255844
0.261292
0.266376
0.271102
0.275477
0.279512
0.283242
0.286683
0.289838
0.292741
0.295404
0.297834
0.300042
0.302072
0.303903
0.305567
0.307084
0.308452
0.309698
0.310815
0.311849
0.312795
0.31369
0.31451
0.315273
0.315995
0.316704
0.317399
0.318097
0.318785
0.319462
0.320138
0.320812
0.321483
0.322159
0.322844
0.323522
0.324194
0.324866
0.325529
0.326174
0.326794
0.327388
0.32794
0.328447
0.328896
0.329297
0.329616
0.329901
0.330118
0.330255
0.330288
0.330134
0.329345
0.327721
0.326169
0.324706
0.322768
0.320389
0.317499
0.314156
0.31037
0.306174
0.301586
0.296618
0.291298
0.28564
0.279674
0.273384
0.266808
0.259953
0.252826
0.245428
0.237796
0.229924
0.221827
0.213515
0.204996
0.196292
0.1874
0.178338
0.169108
0.159736
0.150236
0.140613
0.130893
0.121094
0.111241
0.101367
0.0915161
0.0817498
0.0721564
0.0628762
0.0541334
0.0463019
0.0399934
0.0360853
0.0354455
0.0382881
0.0439788
0.0516084
0.0604633
0.0700875
0.0802066
0.0906601
0.101344
0.11219
0.123147
0.134183
0.145271
0.156391
0.167528
0.178666
0.189796
0.200907
0.211989
0.223035
0.234042
0.244993
0.255888
0.266725
0.277492
0.288188
0.298807
0.309344
0.319792
0.330143
0.340403
0.350565
0.360613
0.370562
0.380397
0.390133
0.399732
0.409217
0.418572
0.427812
0.436908
0.445881
0.454709
0.463408
0.471954
0.48037
0.488641
0.496759
0.504725
0.512538
0.520206
0.527714
0.535069
0.542257
0.549284
0.556159
0.562866
0.569405
0.575777
0.581988
0.588024
0.593893
0.599587
0.60512
0.61047
0.615646
0.620646
0.625471
0.630121
0.634596
0.638881
0.642997
0.646932
0.650683
0.654252
0.657639
0.660843
0.663864
0.666695
0.669351
0.67181
0.674086
0.676173
0.678069
0.679776
0.681292
0.682619
0.683749
0.684681
0.685417
0.685949
0.686284
0.686415
0.68634
0.686053
0.685554
0.684836
0.683899
0.682736
0.681356
0.679728
0.677883
0.675778
0.673429
0.670815
0.667925
0.664743
0.661254
0.657435
0.653275
0.648794
0.644114
0.639725
0.635717
0.632185
0.629608
0.628273
0.628268
0.629551
0.63207
0.635772
0.640599
0.646521
0.653512
0.66154
0.670602
0.680685
0.69181
0.703937
0.717096
0.731336
0.746597
0.762956
0.780449
0.799051
0.818809
0.839819
0.86206
0.885593
0.910458
0.936808
0.964543
0.993872
1.0248
1.05728
1.09134
1.1272
1.1646
1.20362
1.24421
1.28653
1.33025
1.37548
1.42233
1.47052
1.52
1.57109
1.62333
1.67678
1.73125
1.78716
1.84378
1.90123
1.95951
2.01853
2.07783
2.13754
2.19798
2.25869
2.31947
2.38138
2.44349
2.50653
2.57004
2.6352
2.70111
2.76822
2.83694
2.90725
2.97911
3.0533
3.12964
3.20841
3.28935
3.37422
3.46206
3.55386
3.64925
3.75063
3.85607
3.9667
4.08236
4.20294
4.32733
4.45623
4.58832
4.72297
4.85887
4.99761
5.13615
5.2749
5.41187
5.54853
5.68125
5.8099
5.93298
6.04971
6.15653
6.25368
6.33815
6.40761
6.45979
6.49366
6.50567
6.49456
6.4607
6.40444
6.3259
6.22724
6.11118
5.98166
5.84179
5.69489
5.54379
5.39106
5.23905
5.09029
4.94636
4.80922
4.68024
4.56103
4.45256
4.35646
4.27341
4.20434
4.14193
4.09709
4.06201
4.03413
4.01087
3.98989
3.96889
3.94567
3.91849
3.8859
3.84604
3.79786
3.73995
3.67145
3.59139
3.49911
3.39432
3.27675
3.1466
3.00455
2.85179
2.69005
2.52209
2.3512
2.18005
2.01139
1.84701
1.6886
1.53733
1.39395
1.25897
1.13264
1.01497
0.90578
0.804885
0.711946
0.62656
0.548317
0.476837
0.411663
0.352436
0.298805
0.250347
0.206747
0.167844
0.133505
0.103689
0.0788718
0.0604727
0.0510431
0.0522398
0.0612563
0.0739142
0.087744
0.101593
0.115012
0.127798
0.13993
0.151342
0.162097
0.172207
0.181708
0.190661
0.199063
0.206987
0.214423
0.221472
0.228045
0.234268
0.240133
0.245617
0.250762
0.255526
0.259958
0.26405
0.26785
0.271353
0.27459
0.277568
0.280298
0.282811
0.285108
0.287208
0.289127
0.290885
0.292479
0.293929
0.295258
0.296482
0.297601
0.298652
0.299603
0.300479
0.301292
0.302071
0.302831
0.303559
0.304275
0.304969
0.305651
0.306316
0.306983
0.307637
0.308284
0.308914
0.30953
0.310137
0.310718
0.311279
0.311799
0.312284
0.312711
0.313091
0.313403
0.313657
0.313804
0.313901
0.313894
0.313771
0.313474
0.312905
0.311581
0.309364
0.307289
0.305409
0.303129
0.300495
0.297407
0.293904
0.289977
0.285667
0.280989
0.275955
0.270593
0.2649
0.258915
0.252636
0.24607
0.239254
0.232168
0.224856
0.217296
0.209526
0.201535
0.193352
0.184994
0.176451
0.167748
0.158891
0.149899
0.140795
0.131591
0.122307
0.112973
0.10362
0.0942993
0.0850665
0.0760094
0.0672585
0.0590107
0.0515725
0.0454122
0.0411756
0.0395493
0.0408998
0.0450016
0.0512291
0.0589344
0.06763