/*--------------------------------*- C++ -*----------------------------------*\
| =========                 |                                                 |
| \\      /  F ield         | OpenFOAM: The Open Source CFD Toolbox           |
|  \\    /   O peration     | Version:  v2006                                 |
|   \\  /    A nd           | Website:  www.openfoam.com                      |
|    \\/     M anipulation  |                                                 |
\*---------------------------------------------------------------------------*/
FoamFile
{
    version     2.0;
    format      ascii;
    class       volScalarField;
    location    "0";
    object      wallDistance;
}
// * * * * * * * * * * * * * * * * * * * * * * * * * * * * * * * * * * * * * //

dimensions      [0 1 0 0 0 0 0];


internalField   nonuniform List<scalar> 
80000
(
0.00204341
0.00204333
0.00204322
0.00204312
0.00204308
0.0020431
0.00204321
0.0020434
0.00204365
0.00204395
0.00204426
0.00204456
0.00204476
0.0020448
0.00204465
0.00204415
0.0020433
0.002042
0.00204009
0.00203758
0.0020348
0.00203234
0.00203049
0.00202906
0.00202839
0.00202838
0.00202913
0.00203071
0.00203314
0.00203639
0.00204048
0.00204544
0.00205111
0.00205761
0.00206494
0.00207297
0.00208173
0.00209124
0.00210145
0.0021124
0.0021241
0.0021365
0.00214943
0.00216315
0.00217752
0.00219229
0.00220693
0.00222167
0.00223603
0.00225044
0.00226448
0.00227851
0.00229236
0.00230606
0.00231967
0.00233313
0.00234642
0.00235954
0.00237264
0.00238554
0.00239839
0.00241104
0.0024236
0.00243609
0.00244839
0.00246061
0.00247269
0.00248484
0.00249663
0.00250883
0.00252108
0.00253364
0.00254649
0.00255953
0.0025728
0.00258626
0.00259994
0.00261379
0.00262781
0.00264203
0.00265636
0.00267083
0.00268542
0.00270009
0.00271482
0.00272966
0.0027445
0.00275936
0.00277419
0.00278899
0.00280369
0.00281831
0.00283261
0.00284655
0.00286009
0.00287324
0.00288595
0.0028983
0.00291019
0.00292165
0.00293267
0.00294323
0.00295333
0.00296296
0.00297212
0.00298079
0.00298896
0.00299663
0.00300378
0.00301043
0.00301654
0.00302212
0.00302716
0.00303166
0.00303561
0.003039
0.00304183
0.0030441
0.00304579
0.00304691
0.00304745
0.0030474
0.00304724
0.00304722
0.00304722
0.00304722
0.00304722
0.00304722
0.00304722
0.00304722
0.00304722
0.00304722
0.00304722
0.00304722
0.00304722
0.00304722
0.00304722
0.00304722
0.00304722
0.00304722
0.00304722
0.00304722
0.00304722
0.00304722
0.00304722
0.00304722
0.00304722
0.00304722
0.00304722
0.00304722
0.00304722
0.00304722
0.00304722
0.00304722
0.00304722
0.00304722
0.00304722
0.00304722
0.00304722
0.00304722
0.00304722
0.00304722
0.00304722
0.00304722
0.00304722
0.00304722
0.00304722
0.00304722
0.00304722
0.00304722
0.00304722
0.00304722
0.00304722
0.00304722
0.00304722
0.00304722
0.00304722
0.00304722
0.00304722
0.00304722
0.00304722
0.00304722
0.00304722
0.00304722
0.00304722
0.00304722
0.00304722
0.00304722
0.00304722
0.00304722
0.00304722
0.00304722
0.00304722
0.00304722
0.00304722
0.00304722
0.00304722
0.00304722
0.00304722
0.00304722
0.00304722
0.00304722
0.00304722
0.00304722
0.00304722
0.00304722
0.00304722
0.00304722
0.00304722
0.00304722
0.00304722
0.00304722
0.00304722
0.00304722
0.00304722
0.00304722
0.00304722
0.00304722
0.00304722
0.00304722
0.00304722
0.00304722
0.00304722
0.00304722
0.00304722
0.00304722
0.00304722
0.00304722
0.00304722
0.00304722
0.00304722
0.00304722
0.00304722
0.00304722
0.00304722
0.00304722
0.00304722
0.00304722
0.00304722
0.00304722
0.00304722
0.00304722
0.00304722
0.00304722
0.00304722
0.00304722
0.00304722
0.00304722
0.00304722
0.00304722
0.00304722
0.00304722
0.00304722
0.00304722
0.00304722
0.00304722
0.00304722
0.00304722
0.00304722
0.00304722
0.00304722
0.00304722
0.00304722
0.00304722
0.00304722
0.00304722
0.00304722
0.00304722
0.00304722
0.00304722
0.00304722
0.00304722
0.00304722
0.00304722
0.00304722
0.00304722
0.00304722
0.00304724
0.0030474
0.00304745
0.00304691
0.00304579
0.0030441
0.00304183
0.003039
0.00303561
0.00303165
0.00302717
0.00302213
0.00301654
0.00301041
0.0030038
0.00299665
0.00298891
0.00298081
0.00297215
0.0029629
0.00295337
0.00294326
0.00293261
0.00292166
0.00291023
0.00289834
0.00288586
0.00287329
0.00286009
0.00284647
0.00283267
0.00281839
0.00280354
0.00278905
0.00277426
0.00275941
0.00274433
0.00272975
0.00271495
0.00269994
0.00268543
0.00267093
0.00265614
0.00264208
0.00262792
0.0026139
0.00259967
0.00258638
0.00257289
0.00255947
0.00254639
0.00253378
0.0025212
0.00250857
0.00249671
0.00248497
0.00247241
0.00246074
0.00244848
0.00243616
0.00242335
0.00241116
0.00239849
0.00238544
0.00237261
0.00235965
0.00234625
0.00233311
0.00231976
0.00230619
0.0022921
0.00227861
0.00226459
0.00225051
0.00223578
0.00222179
0.00220709
0.00219217
0.00217746
0.00216326
0.00214929
0.00213645
0.00212422
0.00211256
0.00210115
0.00209133
0.00208183
0.00207307
0.00206466
0.00205776
0.00205121
0.00204538
0.00204039
0.00203647
0.00203305
0.0020307
0.00202919
0.00202845
0.00202823
0.00202912
0.00203053
0.00203233
0.00203477
0.0020376
0.00204006
0.00204201
0.00204332
0.00204415
0.00204464
0.00204481
0.00204476
0.00204455
0.00204427
0.00204395
0.00204365
0.0020434
0.00204321
0.0020431
0.00204308
0.00204312
0.00204322
0.00204333
0.00204341
0.00616375
0.00616352
0.0061632
0.0061629
0.00616276
0.00616292
0.00616352
0.00616467
0.00616653
0.00616921
0.00617286
0.00617761
0.00618357
0.00619087
0.00619964
0.00621
0.00622206
0.00623593
0.00625171
0.0062695
0.00628934
0.0063112
0.00633494
0.00636041
0.00638752
0.00641611
0.00644608
0.00647733
0.00650972
0.00654316
0.00657755
0.00661279
0.0066488
0.00668548
0.00672277
0.00676058
0.00679884
0.00683748
0.00687644
0.00691563
0.006955
0.00699446
0.00703395
0.00707341
0.00711277
0.00715194
0.0071909
0.00722964
0.00726816
0.00730647
0.00734458
0.00738251
0.00742025
0.00745782
0.00749522
0.00753246
0.00756956
0.00760651
0.00764335
0.00768005
0.00771665
0.00775314
0.00778953
0.00782584
0.00786208
0.00789825
0.00793437
0.00797044
0.00800646
0.00804246
0.00807839
0.00811424
0.00814998
0.00818558
0.00822101
0.00825623
0.00829122
0.00832595
0.00836039
0.0083945
0.00842826
0.00846163
0.00849457
0.00852706
0.00855906
0.00859054
0.00862145
0.00865177
0.00868146
0.00871047
0.00873877
0.00876633
0.0087931
0.00881907
0.00884424
0.0088686
0.00889214
0.00891485
0.00893672
0.00895775
0.00897792
0.00899723
0.00901568
0.00903326
0.00904995
0.00906576
0.00908067
0.00909469
0.0091078
0.00911999
0.00913127
0.00914163
0.00915106
0.00915956
0.00916712
0.00917374
0.00917941
0.00918414
0.00918792
0.00919074
0.00919261
0.00919347
0.00919371
0.00919365
0.0091936
0.00919354
0.00919349
0.00919344
0.00919339
0.00919335
0.0091933
0.00919325
0.00919321
0.00919316
0.00919312
0.00919307
0.00919303
0.00919298
0.00919294
0.0091929
0.00919286
0.00919282
0.00919278
0.00919274
0.0091927
0.00919267
0.00919263
0.00919259
0.00919256
0.00919252
0.00919249
0.00919246
0.00919242
0.00919239
0.00919236
0.00919233
0.0091923
0.00919227
0.00919224
0.00919221
0.00919219
0.00919216
0.00919213
0.00919211
0.00919208
0.00919206
0.00919204
0.00919201
0.00919199
0.00919197
0.00919195
0.00919193
0.00919191
0.00919189
0.00919188
0.00919186
0.00919184
0.00919183
0.00919181
0.0091918
0.00919178
0.00919177
0.00919176
0.00919175
0.00919174
0.00919173
0.00919172
0.00919171
0.0091917
0.00919169
0.00919169
0.00919168
0.00919167
0.00919167
0.00919166
0.00919166
0.00919166
0.00919166
0.00919165
0.00919165
0.00919165
0.00919165
0.00919166
0.00919166
0.00919166
0.00919166
0.00919167
0.00919167
0.00919168
0.00919169
0.00919169
0.0091917
0.00919171
0.00919172
0.00919173
0.00919174
0.00919175
0.00919176
0.00919177
0.00919178
0.0091918
0.00919181
0.00919183
0.00919184
0.00919186
0.00919188
0.00919189
0.00919191
0.00919193
0.00919195
0.00919197
0.00919199
0.00919201
0.00919204
0.00919206
0.00919208
0.00919211
0.00919213
0.00919216
0.00919219
0.00919221
0.00919224
0.00919227
0.0091923
0.00919233
0.00919236
0.00919239
0.00919242
0.00919246
0.00919249
0.00919252
0.00919256
0.00919259
0.00919263
0.00919267
0.0091927
0.00919274
0.00919278
0.00919282
0.00919286
0.0091929
0.00919294
0.00919298
0.00919303
0.00919307
0.00919312
0.00919316
0.00919321
0.00919325
0.0091933
0.00919335
0.00919339
0.00919344
0.00919349
0.00919354
0.0091936
0.00919365
0.00919371
0.00919347
0.00919261
0.00919074
0.00918792
0.00918414
0.00917941
0.00917374
0.00916712
0.00915956
0.00915106
0.00914163
0.00913127
0.00911999
0.0091078
0.00909469
0.00908067
0.00906576
0.00904996
0.00903326
0.00901568
0.00899724
0.00897792
0.00895774
0.00893672
0.00891485
0.00889214
0.0088686
0.00884425
0.00881907
0.00879309
0.00876633
0.00873877
0.00871046
0.00868146
0.00865178
0.00862145
0.00859053
0.00855907
0.00852706
0.00849457
0.00846163
0.00842825
0.00839449
0.00836039
0.00832596
0.00829122
0.00825623
0.00822101
0.00818558
0.00814998
0.00811424
0.0080784
0.00804245
0.00800646
0.00797044
0.00793436
0.00789824
0.00786208
0.00782585
0.00778953
0.00775313
0.00771665
0.00768005
0.00764334
0.00760652
0.00756955
0.00753245
0.00749522
0.00745782
0.00742024
0.0073825
0.00734459
0.00730648
0.00726815
0.00722964
0.00719091
0.00715195
0.00711277
0.00707342
0.00703395
0.00699445
0.00695499
0.00691564
0.00687643
0.00683748
0.00679884
0.00676059
0.00672276
0.00668548
0.0066488
0.0066128
0.00657755
0.00654316
0.00650971
0.00647732
0.00644608
0.00641612
0.00638751
0.00636041
0.00633494
0.00631121
0.00628934
0.0062695
0.00625171
0.00623593
0.00622206
0.00621
0.00619964
0.00619087
0.00618357
0.00617761
0.00617286
0.00616921
0.00616653
0.00616467
0.00616352
0.00616292
0.00616276
0.0061629
0.0061632
0.00616352
0.00616375
0.0103516
0.0103512
0.0103507
0.0103502
0.01035
0.0103502
0.0103512
0.0103532
0.0103563
0.0103608
0.010367
0.010375
0.010385
0.0103974
0.0104122
0.0104297
0.0104501
0.0104735
0.0105002
0.0105303
0.0105639
0.0106009
0.010641
0.0106841
0.0107298
0.0107781
0.0108287
0.0108813
0.0109359
0.0109923
0.0110502
0.0111095
0.0111701
0.0112319
0.0112946
0.0113581
0.0114225
0.0114874
0.0115528
0.0116187
0.0116848
0.011751
0.0118173
0.0118835
0.0119496
0.0120153
0.0120806
0.0121456
0.0122102
0.0122745
0.0123384
0.0124021
0.0124654
0.0125284
0.0125912
0.0126537
0.0127159
0.0127779
0.0128397
0.0129013
0.0129628
0.013024
0.0130851
0.0131461
0.0132069
0.0132676
0.0133282
0.0133888
0.0134492
0.0135097
0.01357
0.0136302
0.0136902
0.0137499
0.0138093
0.0138684
0.0139272
0.0139854
0.0140432
0.0141004
0.014157
0.014213
0.0142683
0.0143227
0.0143764
0.0144292
0.014481
0.0145319
0.0145816
0.0146303
0.0146777
0.0147239
0.0147687
0.0148123
0.0148545
0.0148953
0.0149347
0.0149728
0.0150095
0.0150447
0.0150785
0.0151109
0.0151418
0.0151713
0.0151993
0.0152258
0.0152508
0.0152742
0.0152962
0.0153167
0.0153356
0.0153529
0.0153687
0.015383
0.0153957
0.0154068
0.0154163
0.0154242
0.0154305
0.0154353
0.0154384
0.0154399
0.0154402
0.0154401
0.0154401
0.01544
0.0154399
0.0154398
0.0154397
0.0154396
0.0154396
0.0154395
0.0154394
0.0154393
0.0154392
0.0154392
0.0154391
0.015439
0.015439
0.0154389
0.0154388
0.0154388
0.0154387
0.0154386
0.0154386
0.0154385
0.0154384
0.0154384
0.0154383
0.0154383
0.0154382
0.0154381
0.0154381
0.015438
0.015438
0.0154379
0.0154379
0.0154378
0.0154378
0.0154377
0.0154377
0.0154376
0.0154376
0.0154376
0.0154375
0.0154375
0.0154374
0.0154374
0.0154374
0.0154373
0.0154373
0.0154373
0.0154372
0.0154372
0.0154372
0.0154371
0.0154371
0.0154371
0.0154371
0.015437
0.015437
0.015437
0.015437
0.015437
0.0154369
0.0154369
0.0154369
0.0154369
0.0154369
0.0154369
0.0154368
0.0154368
0.0154368
0.0154368
0.0154368
0.0154368
0.0154368
0.0154368
0.0154368
0.0154368
0.0154368
0.0154368
0.0154368
0.0154368
0.0154368
0.0154368
0.0154368
0.0154368
0.0154368
0.0154368
0.0154369
0.0154369
0.0154369
0.0154369
0.0154369
0.0154369
0.015437
0.015437
0.015437
0.015437
0.015437
0.0154371
0.0154371
0.0154371
0.0154371
0.0154372
0.0154372
0.0154372
0.0154373
0.0154373
0.0154373
0.0154374
0.0154374
0.0154374
0.0154375
0.0154375
0.0154376
0.0154376
0.0154376
0.0154377
0.0154377
0.0154378
0.0154378
0.0154379
0.0154379
0.015438
0.015438
0.0154381
0.0154381
0.0154382
0.0154383
0.0154383
0.0154384
0.0154384
0.0154385
0.0154386
0.0154386
0.0154387
0.0154388
0.0154388
0.0154389
0.015439
0.015439
0.0154391
0.0154392
0.0154392
0.0154393
0.0154394
0.0154395
0.0154396
0.0154396
0.0154397
0.0154398
0.0154399
0.01544
0.0154401
0.0154401
0.0154402
0.0154399
0.0154384
0.0154353
0.0154305
0.0154242
0.0154163
0.0154068
0.0153957
0.015383
0.0153687
0.0153529
0.0153356
0.0153167
0.0152962
0.0152743
0.0152508
0.0152258
0.0151993
0.0151713
0.0151418
0.0151109
0.0150785
0.0150447
0.0150095
0.0149728
0.0149347
0.0148953
0.0148545
0.0148123
0.0147687
0.0147239
0.0146777
0.0146302
0.0145816
0.0145319
0.014481
0.0144292
0.0143764
0.0143228
0.0142683
0.014213
0.014157
0.0141004
0.0140432
0.0139854
0.0139272
0.0138684
0.0138094
0.0137499
0.0136901
0.0136302
0.01357
0.0135097
0.0134492
0.0133888
0.0133282
0.0132676
0.0132069
0.0131461
0.0130851
0.013024
0.0129628
0.0129014
0.0128397
0.0127779
0.0127159
0.0126536
0.0125912
0.0125284
0.0124654
0.012402
0.0123384
0.0122745
0.0122102
0.0121456
0.0120806
0.0120153
0.0119496
0.0118835
0.0118173
0.011751
0.0116848
0.0116187
0.0115528
0.0114874
0.0114225
0.0113582
0.0112946
0.0112318
0.0111701
0.0111095
0.0110502
0.0109923
0.0109359
0.0108813
0.0108287
0.0107781
0.0107298
0.010684
0.010641
0.0106009
0.0105639
0.0105303
0.0105002
0.0104735
0.0104501
0.0104297
0.0104122
0.0103974
0.010385
0.010375
0.010367
0.0103608
0.0103563
0.0103532
0.0103512
0.0103502
0.01035
0.0103502
0.0103507
0.0103512
0.0103516
0.0146081
0.0146076
0.0146068
0.0146061
0.0146058
0.0146062
0.0146076
0.0146103
0.0146147
0.0146211
0.0146299
0.0146412
0.0146554
0.0146728
0.0146938
0.0147185
0.0147474
0.0147806
0.0148184
0.014861
0.0149085
0.0149609
0.0150177
0.0150786
0.0151433
0.0152115
0.0152831
0.0153575
0.0154347
0.0155143
0.0155962
0.01568
0.0157656
0.0158527
0.0159413
0.0160311
0.0161219
0.0162135
0.0163059
0.0163988
0.0164921
0.0165856
0.0166791
0.0167725
0.0168656
0.0169583
0.0170505
0.0171421
0.0172333
0.0173239
0.0174141
0.0175039
0.0175932
0.0176821
0.0177706
0.0178588
0.0179466
0.0180341
0.0181213
0.0182082
0.0182949
0.0183813
0.0184675
0.0185535
0.0186393
0.0187249
0.0188105
0.0188959
0.0189812
0.0190665
0.0191516
0.0192365
0.0193211
0.0194054
0.0194893
0.0195727
0.0196555
0.0197377
0.0198192
0.0198999
0.0199797
0.0200587
0.0201366
0.0202134
0.0202891
0.0203635
0.0204366
0.0205083
0.0205785
0.0206471
0.020714
0.0207791
0.0208423
0.0209037
0.0209632
0.0210208
0.0210764
0.0211301
0.0211817
0.0212314
0.0212791
0.0213248
0.0213684
0.0214099
0.0214494
0.0214867
0.021522
0.0215551
0.0215861
0.0216149
0.0216415
0.021666
0.0216883
0.0217084
0.0217263
0.0217419
0.0217553
0.0217665
0.0217755
0.0217821
0.0217865
0.0217886
0.0217891
0.021789
0.0217889
0.0217888
0.0217887
0.0217885
0.0217884
0.0217883
0.0217882
0.0217881
0.021788
0.0217879
0.0217878
0.0217876
0.0217875
0.0217874
0.0217873
0.0217872
0.0217871
0.0217871
0.021787
0.0217869
0.0217868
0.0217867
0.0217866
0.0217865
0.0217864
0.0217863
0.0217863
0.0217862
0.0217861
0.021786
0.021786
0.0217859
0.0217858
0.0217857
0.0217857
0.0217856
0.0217856
0.0217855
0.0217854
0.0217854
0.0217853
0.0217853
0.0217852
0.0217851
0.0217851
0.021785
0.021785
0.0217849
0.0217849
0.0217849
0.0217848
0.0217848
0.0217847
0.0217847
0.0217847
0.0217846
0.0217846
0.0217846
0.0217845
0.0217845
0.0217845
0.0217845
0.0217844
0.0217844
0.0217844
0.0217844
0.0217844
0.0217843
0.0217843
0.0217843
0.0217843
0.0217843
0.0217843
0.0217843
0.0217843
0.0217843
0.0217843
0.0217843
0.0217843
0.0217843
0.0217843
0.0217843
0.0217843
0.0217843
0.0217843
0.0217844
0.0217844
0.0217844
0.0217844
0.0217844
0.0217845
0.0217845
0.0217845
0.0217845
0.0217846
0.0217846
0.0217846
0.0217847
0.0217847
0.0217847
0.0217848
0.0217848
0.0217849
0.0217849
0.0217849
0.021785
0.021785
0.0217851
0.0217851
0.0217852
0.0217853
0.0217853
0.0217854
0.0217854
0.0217855
0.0217856
0.0217856
0.0217857
0.0217857
0.0217858
0.0217859
0.021786
0.021786
0.0217861
0.0217862
0.0217863
0.0217863
0.0217864
0.0217865
0.0217866
0.0217867
0.0217868
0.0217869
0.021787
0.0217871
0.0217871
0.0217872
0.0217873
0.0217874
0.0217875
0.0217876
0.0217878
0.0217879
0.021788
0.0217881
0.0217882
0.0217883
0.0217884
0.0217885
0.0217887
0.0217888
0.0217889
0.021789
0.0217891
0.0217886
0.0217865
0.0217821
0.0217755
0.0217665
0.0217553
0.0217419
0.0217263
0.0217084
0.0216883
0.021666
0.0216416
0.0216149
0.0215861
0.0215551
0.021522
0.0214867
0.0214494
0.0214099
0.0213684
0.0213248
0.0212791
0.0212314
0.0211817
0.0211301
0.0210764
0.0210208
0.0209632
0.0209037
0.0208423
0.0207791
0.0207139
0.020647
0.0205785
0.0205083
0.0204366
0.0203635
0.0202891
0.0202134
0.0201366
0.0200587
0.0199797
0.0198998
0.0198191
0.0197377
0.0196555
0.0195726
0.0194893
0.0194054
0.0193211
0.0192365
0.0191516
0.0190665
0.0189812
0.0188959
0.0188105
0.0187249
0.0186393
0.0185535
0.0184675
0.0183813
0.0182949
0.0182082
0.0181213
0.0180341
0.0179466
0.0178588
0.0177706
0.0176821
0.0175932
0.0175039
0.0174141
0.017324
0.0172333
0.0171421
0.0170505
0.0169583
0.0168656
0.0167725
0.0166791
0.0165855
0.0164921
0.0163988
0.0163059
0.0162135
0.0161219
0.0160311
0.0159413
0.0158527
0.0157656
0.01568
0.0155962
0.0155143
0.0154347
0.0153575
0.0152831
0.0152116
0.0151433
0.0150785
0.0150177
0.0149609
0.0149085
0.014861
0.0148184
0.0147806
0.0147474
0.0147186
0.0146938
0.0146728
0.0146554
0.0146412
0.0146298
0.0146211
0.0146147
0.0146103
0.0146076
0.0146062
0.0146058
0.0146061
0.0146068
0.0146076
0.0146081
0.0189344
0.0189337
0.0189327
0.0189318
0.0189314
0.0189319
0.0189337
0.0189373
0.018943
0.0189513
0.0189626
0.0189773
0.0189957
0.0190184
0.0190456
0.0190777
0.0191152
0.0191583
0.0192073
0.0192627
0.0193244
0.0193923
0.019466
0.0195451
0.0196291
0.0197177
0.0198105
0.0199071
0.0200072
0.0201105
0.0202166
0.0203253
0.0204363
0.0205494
0.0206642
0.0207806
0.0208983
0.0210171
0.0211369
0.0212573
0.0213782
0.0214994
0.0216206
0.0217416
0.0218623
0.0219824
0.0221018
0.0222206
0.0223387
0.0224561
0.022573
0.0226893
0.0228051
0.0229203
0.023035
0.0231493
0.0232631
0.0233765
0.0234895
0.0236021
0.0237144
0.0238263
0.023938
0.0240495
0.0241607
0.0242717
0.0243826
0.0244933
0.0246039
0.0247144
0.0248247
0.0249347
0.0250444
0.0251536
0.0252623
0.0253703
0.0254777
0.0255842
0.0256898
0.0257944
0.0258978
0.0260001
0.0261011
0.0262007
0.0262987
0.0263951
0.0264899
0.0265827
0.0266736
0.0267625
0.0268491
0.0269335
0.0270155
0.027095
0.0271721
0.0272466
0.0273187
0.0273882
0.0274552
0.0275196
0.0275813
0.0276405
0.027697
0.0277508
0.0278019
0.0278503
0.027896
0.0279389
0.027979
0.0280163
0.0280509
0.0280826
0.0281115
0.0281375
0.0281607
0.0281809
0.0281983
0.0282128
0.0282244
0.028233
0.0282387
0.0282415
0.0282421
0.0282419
0.0282418
0.0282416
0.0282415
0.0282413
0.0282412
0.028241
0.0282409
0.0282407
0.0282406
0.0282404
0.0282403
0.0282402
0.02824
0.0282399
0.0282398
0.0282397
0.0282395
0.0282394
0.0282393
0.0282392
0.028239
0.0282389
0.0282388
0.0282387
0.0282386
0.0282385
0.0282384
0.0282383
0.0282382
0.0282381
0.028238
0.0282379
0.0282378
0.0282377
0.0282376
0.0282375
0.0282375
0.0282374
0.0282373
0.0282372
0.0282371
0.0282371
0.028237
0.0282369
0.0282369
0.0282368
0.0282367
0.0282367
0.0282366
0.0282366
0.0282365
0.0282365
0.0282364
0.0282364
0.0282363
0.0282363
0.0282362
0.0282362
0.0282361
0.0282361
0.0282361
0.028236
0.028236
0.028236
0.028236
0.0282359
0.0282359
0.0282359
0.0282359
0.0282359
0.0282359
0.0282358
0.0282358
0.0282358
0.0282358
0.0282358
0.0282358
0.0282358
0.0282358
0.0282358
0.0282358
0.0282359
0.0282359
0.0282359
0.0282359
0.0282359
0.0282359
0.028236
0.028236
0.028236
0.028236
0.0282361
0.0282361
0.0282361
0.0282362
0.0282362
0.0282363
0.0282363
0.0282364
0.0282364
0.0282365
0.0282365
0.0282366
0.0282366
0.0282367
0.0282367
0.0282368
0.0282369
0.0282369
0.028237
0.0282371
0.0282371
0.0282372
0.0282373
0.0282374
0.0282375
0.0282375
0.0282376
0.0282377
0.0282378
0.0282379
0.028238
0.0282381
0.0282382
0.0282383
0.0282384
0.0282385
0.0282386
0.0282387
0.0282388
0.0282389
0.028239
0.0282392
0.0282393
0.0282394
0.0282395
0.0282397
0.0282398
0.0282399
0.02824
0.0282402
0.0282403
0.0282404
0.0282406
0.0282407
0.0282409
0.028241
0.0282412
0.0282413
0.0282415
0.0282416
0.0282418
0.0282419
0.0282421
0.0282415
0.0282387
0.028233
0.0282244
0.0282128
0.0281983
0.0281809
0.0281607
0.0281375
0.0281115
0.0280826
0.0280509
0.0280163
0.027979
0.0279389
0.027896
0.0278503
0.0278019
0.0277508
0.0276969
0.0276405
0.0275813
0.0275196
0.0274552
0.0273882
0.0273187
0.0272466
0.0271721
0.027095
0.0270155
0.0269335
0.0268491
0.0267625
0.0266736
0.0265827
0.0264898
0.0263951
0.0262987
0.0262007
0.0261011
0.0260001
0.0258978
0.0257943
0.0256898
0.0255842
0.0254777
0.0253703
0.0252623
0.0251536
0.0250444
0.0249347
0.0248247
0.0247144
0.0246039
0.0244933
0.0243826
0.0242717
0.0241607
0.0240495
0.023938
0.0238263
0.0237144
0.0236021
0.0234894
0.0233765
0.0232631
0.0231492
0.023035
0.0229203
0.022805
0.0226893
0.022573
0.0224562
0.0223387
0.0222206
0.0221018
0.0219824
0.0218623
0.0217416
0.0216205
0.0214993
0.0213782
0.0212573
0.0211369
0.0210171
0.0208983
0.0207806
0.0206642
0.0205494
0.0204364
0.0203254
0.0202166
0.0201105
0.0200072
0.0199071
0.0198105
0.0197177
0.0196291
0.0195451
0.019466
0.0193923
0.0193244
0.0192627
0.0192073
0.0191582
0.0191152
0.0190777
0.0190456
0.0190183
0.0189957
0.0189773
0.0189626
0.0189513
0.018943
0.0189373
0.0189337
0.0189319
0.0189314
0.0189318
0.0189327
0.0189337
0.0189344
0.0233316
0.0233307
0.0233295
0.0233284
0.0233278
0.0233284
0.0233307
0.0233351
0.0233422
0.0233524
0.0233663
0.0233844
0.0234072
0.0234351
0.0234686
0.0235083
0.0235545
0.0236077
0.0236682
0.0237364
0.0238126
0.0238964
0.0239873
0.0240848
0.0241884
0.0242977
0.0244121
0.0245312
0.0246546
0.024782
0.0249128
0.0250468
0.0251837
0.025323
0.0254645
0.0256079
0.025753
0.0258995
0.026047
0.0261954
0.0263444
0.0264937
0.026643
0.0267921
0.0269408
0.0270888
0.0272359
0.0273822
0.0275277
0.0276725
0.0278165
0.0279597
0.0281024
0.0282443
0.0283857
0.0285264
0.0286666
0.0288063
0.0289456
0.0290843
0.0292227
0.0293607
0.0294983
0.0296356
0.0297726
0.0299094
0.030046
0.0301825
0.0303187
0.0304549
0.0305908
0.0307263
0.0308615
0.030996
0.0311299
0.0312631
0.0313953
0.0315265
0.0316566
0.0317855
0.0319129
0.032039
0.0321633
0.032286
0.0324068
0.0325256
0.0326423
0.0327567
0.0328687
0.0329781
0.0330849
0.0331888
0.0332898
0.0333877
0.0334827
0.0335745
0.0336633
0.033749
0.0338315
0.0339108
0.0339868
0.0340597
0.0341293
0.0341956
0.0342585
0.0343182
0.0343744
0.0344273
0.0344767
0.0345227
0.0345653
0.0346043
0.0346399
0.034672
0.0347005
0.0347255
0.0347469
0.0347647
0.034779
0.0347896
0.0347967
0.0348
0.0348008
0.0348006
0.0348004
0.0348002
0.0348001
0.0347999
0.0347997
0.0347995
0.0347993
0.0347991
0.034799
0.0347988
0.0347986
0.0347985
0.0347983
0.0347981
0.034798
0.0347978
0.0347977
0.0347975
0.0347974
0.0347972
0.0347971
0.0347969
0.0347968
0.0347966
0.0347965
0.0347964
0.0347963
0.0347961
0.034796
0.0347959
0.0347958
0.0347956
0.0347955
0.0347954
0.0347953
0.0347952
0.0347951
0.034795
0.0347949
0.0347948
0.0347947
0.0347946
0.0347945
0.0347945
0.0347944
0.0347943
0.0347942
0.0347941
0.0347941
0.034794
0.0347939
0.0347939
0.0347938
0.0347937
0.0347937
0.0347936
0.0347936
0.0347935
0.0347935
0.0347934
0.0347934
0.0347934
0.0347933
0.0347933
0.0347933
0.0347932
0.0347932
0.0347932
0.0347932
0.0347931
0.0347931
0.0347931
0.0347931
0.0347931
0.0347931
0.0347931
0.0347931
0.0347931
0.0347931
0.0347931
0.0347931
0.0347931
0.0347931
0.0347932
0.0347932
0.0347932
0.0347932
0.0347933
0.0347933
0.0347933
0.0347934
0.0347934
0.0347934
0.0347935
0.0347935
0.0347936
0.0347936
0.0347937
0.0347937
0.0347938
0.0347939
0.0347939
0.034794
0.0347941
0.0347941
0.0347942
0.0347943
0.0347944
0.0347945
0.0347945
0.0347946
0.0347947
0.0347948
0.0347949
0.034795
0.0347951
0.0347952
0.0347953
0.0347954
0.0347955
0.0347956
0.0347958
0.0347959
0.034796
0.0347961
0.0347963
0.0347964
0.0347965
0.0347966
0.0347968
0.0347969
0.0347971
0.0347972
0.0347974
0.0347975
0.0347977
0.0347978
0.034798
0.0347981
0.0347983
0.0347985
0.0347986
0.0347988
0.034799
0.0347991
0.0347993
0.0347995
0.0347997
0.0347999
0.0348001
0.0348002
0.0348004
0.0348006
0.0348008
0.0348
0.0347967
0.0347896
0.034779
0.0347647
0.0347469
0.0347255
0.0347005
0.034672
0.0346399
0.0346043
0.0345653
0.0345227
0.0344767
0.0344273
0.0343744
0.0343182
0.0342585
0.0341956
0.0341293
0.0340597
0.0339868
0.0339107
0.0338315
0.033749
0.0336633
0.0335745
0.0334827
0.0333877
0.0332898
0.0331888
0.0330849
0.0329781
0.0328687
0.0327567
0.0326423
0.0325256
0.0324068
0.032286
0.0321633
0.032039
0.0319129
0.0317854
0.0316566
0.0315265
0.0313953
0.031263
0.03113
0.0309961
0.0308615
0.0307263
0.0305908
0.0304549
0.0303187
0.0301825
0.030046
0.0299094
0.0297726
0.0296356
0.0294983
0.0293606
0.0292227
0.0290844
0.0289456
0.0288063
0.0286666
0.0285264
0.0283856
0.0282443
0.0281023
0.0279597
0.0278165
0.0276725
0.0275277
0.0273822
0.0272359
0.0270888
0.0269408
0.0267921
0.026643
0.0264936
0.0263444
0.0261954
0.026047
0.0258994
0.025753
0.025608
0.0254645
0.025323
0.0251837
0.0250469
0.0249128
0.024782
0.0246546
0.0245312
0.0244121
0.0242977
0.0241884
0.0240848
0.0239873
0.0238964
0.0238126
0.0237364
0.0236682
0.0236076
0.0235545
0.0235083
0.0234686
0.0234351
0.0234072
0.0233844
0.0233663
0.0233524
0.0233422
0.0233351
0.0233307
0.0233285
0.0233278
0.0233284
0.0233295
0.0233307
0.0233316
0.0278008
0.0277998
0.0277984
0.027797
0.0277964
0.0277971
0.0277998
0.027805
0.0278134
0.0278256
0.0278422
0.0278638
0.0278909
0.0279242
0.0279642
0.0280115
0.0280666
0.02813
0.0282021
0.0282836
0.0283744
0.0284743
0.0285827
0.028699
0.0288225
0.0289527
0.0290891
0.0292311
0.0293783
0.02953
0.029686
0.0298457
0.0300088
0.0301748
0.0303435
0.0305144
0.0306873
0.0308618
0.0310376
0.0312145
0.031392
0.0315698
0.0317478
0.0319255
0.0321026
0.0322789
0.0324542
0.0326285
0.0328019
0.0329743
0.0331458
0.0333166
0.0334865
0.0336556
0.033824
0.0339917
0.0341588
0.0343252
0.0344911
0.0346565
0.0348213
0.0349857
0.0351497
0.0353133
0.0354765
0.0356395
0.0358023
0.0359648
0.0361272
0.0362894
0.0364514
0.0366129
0.0367739
0.0369342
0.0370938
0.0372524
0.0374099
0.0375662
0.0377212
0.0378748
0.0380266
0.0381768
0.038325
0.0384711
0.038615
0.0387566
0.0388956
0.0390318
0.0391653
0.0392957
0.0394228
0.0395466
0.0396669
0.0397836
0.0398967
0.0400062
0.0401119
0.040214
0.0403122
0.0404067
0.0404973
0.0405841
0.040667
0.040746
0.040821
0.040892
0.0409591
0.041022
0.0410809
0.0411357
0.0411864
0.041233
0.0412753
0.0413135
0.0413475
0.0413773
0.0414028
0.041424
0.041441
0.0414537
0.0414621
0.0414661
0.041467
0.0414668
0.0414666
0.0414664
0.0414661
0.0414659
0.0414657
0.0414655
0.0414653
0.041465
0.0414648
0.0414646
0.0414644
0.0414642
0.041464
0.0414638
0.0414636
0.0414635
0.0414633
0.0414631
0.0414629
0.0414627
0.0414626
0.0414624
0.0414622
0.0414621
0.0414619
0.0414618
0.0414616
0.0414614
0.0414613
0.0414612
0.041461
0.0414609
0.0414607
0.0414606
0.0414605
0.0414604
0.0414602
0.0414601
0.04146
0.0414599
0.0414598
0.0414597
0.0414596
0.0414595
0.0414594
0.0414593
0.0414592
0.0414591
0.041459
0.0414589
0.0414588
0.0414588
0.0414587
0.0414586
0.0414585
0.0414585
0.0414584
0.0414584
0.0414583
0.0414583
0.0414582
0.0414582
0.0414581
0.0414581
0.041458
0.041458
0.041458
0.0414579
0.0414579
0.0414579
0.0414579
0.0414579
0.0414579
0.0414578
0.0414578
0.0414578
0.0414578
0.0414578
0.0414578
0.0414579
0.0414579
0.0414579
0.0414579
0.0414579
0.0414579
0.041458
0.041458
0.041458
0.0414581
0.0414581
0.0414582
0.0414582
0.0414583
0.0414583
0.0414584
0.0414584
0.0414585
0.0414585
0.0414586
0.0414587
0.0414588
0.0414588
0.0414589
0.041459
0.0414591
0.0414592
0.0414593
0.0414594
0.0414595
0.0414596
0.0414597
0.0414598
0.0414599
0.04146
0.0414601
0.0414602
0.0414604
0.0414605
0.0414606
0.0414607
0.0414609
0.041461
0.0414612
0.0414613
0.0414614
0.0414616
0.0414618
0.0414619
0.0414621
0.0414622
0.0414624
0.0414626
0.0414627
0.0414629
0.0414631
0.0414633
0.0414635
0.0414636
0.0414638
0.041464
0.0414642
0.0414644
0.0414646
0.0414648
0.041465
0.0414653
0.0414655
0.0414657
0.0414659
0.0414661
0.0414664
0.0414666
0.0414668
0.041467
0.0414661
0.0414621
0.0414537
0.041441
0.041424
0.0414028
0.0413773
0.0413475
0.0413135
0.0412753
0.041233
0.0411864
0.0411357
0.0410809
0.041022
0.0409591
0.040892
0.040821
0.040746
0.040667
0.0405841
0.0404973
0.0404067
0.0403122
0.040214
0.0401119
0.0400062
0.0398967
0.0397836
0.0396669
0.0395467
0.0394228
0.0392956
0.0391653
0.0390319
0.0388955
0.0387565
0.038615
0.0384711
0.038325
0.0381768
0.0380266
0.0378747
0.0377212
0.0375663
0.0374099
0.0372523
0.0370938
0.0369342
0.0367739
0.0366129
0.0364514
0.0362894
0.0361272
0.0359649
0.0358023
0.0356395
0.0354766
0.0353133
0.0351497
0.0349857
0.0348213
0.0346565
0.0344911
0.0343252
0.0341588
0.0339917
0.033824
0.0336556
0.0334864
0.0333165
0.0331458
0.0329743
0.0328018
0.0326285
0.0324542
0.0322789
0.0321026
0.0319255
0.0317478
0.0315698
0.0313919
0.0312145
0.0310376
0.0308618
0.0306873
0.0305145
0.0303435
0.0301748
0.0300088
0.0298458
0.029686
0.0295301
0.0293783
0.0292311
0.0290891
0.0289527
0.0288225
0.0286989
0.0285827
0.0284743
0.0283744
0.0282836
0.0282021
0.02813
0.0280666
0.0280115
0.0279642
0.0279242
0.027891
0.0278638
0.0278422
0.0278256
0.0278135
0.027805
0.0277998
0.0277971
0.0277964
0.027797
0.0277984
0.0277998
0.0278008
0.0323433
0.0323422
0.0323404
0.0323389
0.0323381
0.032339
0.0323421
0.0323482
0.032358
0.0323722
0.0323915
0.0324166
0.0324482
0.0324869
0.0325335
0.0325885
0.0326526
0.0327264
0.0328104
0.0329052
0.0330109
0.0331273
0.0332534
0.0333887
0.0335325
0.0336841
0.0338428
0.0340081
0.0341793
0.0343559
0.0345374
0.0347232
0.034913
0.0351062
0.0353024
0.0355013
0.0357025
0.0359055
0.0361101
0.0363158
0.0365223
0.0367292
0.0369362
0.0371429
0.037349
0.037554
0.037758
0.0379608
0.0381624
0.038363
0.0385626
0.0387612
0.0389588
0.0391556
0.0393515
0.0395466
0.0397409
0.0399346
0.0401275
0.0403199
0.0405117
0.0407029
0.0408937