/*--------------------------------*- C++ -*----------------------------------*\
| =========                 |                                                 |
| \\      /  F ield         | OpenFOAM: The Open Source CFD Toolbox           |
|  \\    /   O peration     | Version:  v2006                                 |
|   \\  /    A nd           | Website:  www.openfoam.com                      |
|    \\/     M anipulation  |                                                 |
\*---------------------------------------------------------------------------*/
FoamFile
{
    version     2.0;
    format      ascii;
    class       volVectorField;
    location    "10";
    object      C;
}
// * * * * * * * * * * * * * * * * * * * * * * * * * * * * * * * * * * * * * //

dimensions      [0 1 0 0 0 0 0];


internalField   nonuniform List<vector> 
80000
(
(0.0164841 1.00207 0.0267857)
(0.0494523 1.00214 0.0267857)
(0.0824204 1.00225 0.0267857)
(0.115389 1.00235 0.0267857)
(0.148357 1.0024 0.0267857)
(0.181325 1.00234 0.0267857)
(0.214293 1.00215 0.0267857)
(0.247259 1.00177 0.0267857)
(0.280222 1.00115 0.0267857)
(0.313178 1.00026 0.0267857)
(0.346124 0.999049 0.0267857)
(0.379054 0.997471 0.0267857)
(0.411962 0.995484 0.0267857)
(0.444839 0.993046 0.0267857)
(0.477676 0.990116 0.0267857)
(0.51046 0.98665 0.0267857)
(0.543178 0.982608 0.0267857)
(0.575814 0.977957 0.0267857)
(0.608351 0.97266 0.0267857)
(0.640771 0.966681 0.0267857)
(0.673054 0.960011 0.0267857)
(0.705196 0.952672 0.0267857)
(0.737187 0.944713 0.0267857)
(0.769027 0.93618 0.0267857)
(0.800724 0.927113 0.0267857)
(0.832274 0.917558 0.0267857)
(0.863688 0.907551 0.0267857)
(0.894965 0.897134 0.0267857)
(0.926114 0.886345 0.0267857)
(0.957148 0.875218 0.0267857)
(0.988068 0.863787 0.0267857)
(1.01889 0.852084 0.0267857)
(1.04961 0.840138 0.0267857)
(1.08025 0.827977 0.0267857)
(1.11082 0.815626 0.0267857)
(1.14132 0.803114 0.0267857)
(1.17176 0.790462 0.0267857)
(1.20216 0.777693 0.0267857)
(1.23251 0.764832 0.0267857)
(1.26283 0.751901 0.0267857)
(1.29314 0.738923 0.0267857)
(1.32343 0.725923 0.0267857)
(1.35373 0.712921 0.0267857)
(1.38403 0.699938 0.0267857)
(1.41435 0.687001 0.0267857)
(1.4447 0.674127 0.0267857)
(1.47508 0.661325 0.0267857)
(1.50548 0.648596 0.0267857)
(1.53592 0.635938 0.0267857)
(1.56639 0.623348 0.0267857)
(1.59688 0.610823 0.0267857)
(1.6274 0.598359 0.0267857)
(1.65794 0.585955 0.0267857)
(1.68851 0.573607 0.0267857)
(1.7191 0.561313 0.0267857)
(1.74971 0.54907 0.0267857)
(1.78033 0.536876 0.0267857)
(1.81098 0.524725 0.0267857)
(1.84164 0.512617 0.0267857)
(1.87232 0.500548 0.0267857)
(1.90301 0.488516 0.0267857)
(1.93371 0.476517 0.0267857)
(1.96443 0.464548 0.0267857)
(1.99516 0.452607 0.0267857)
(2.0259 0.44069 0.0267857)
(2.05664 0.428793 0.0267857)
(2.08739 0.416914 0.0267857)
(2.11815 0.405052 0.0267857)
(2.14891 0.393201 0.0267857)
(2.17968 0.381364 0.0267857)
(2.21046 0.369548 0.0267857)
(2.24124 0.357761 0.0267857)
(2.27204 0.346014 0.0267857)
(2.30287 0.334317 0.0267857)
(2.33371 0.322678 0.0267857)
(2.36458 0.311107 0.0267857)
(2.39548 0.299615 0.0267857)
(2.42641 0.28821 0.0267857)
(2.45737 0.276903 0.0267857)
(2.48838 0.265705 0.0267857)
(2.51943 0.254625 0.0267857)
(2.55052 0.243674 0.0267857)
(2.58167 0.232862 0.0267857)
(2.61286 0.222201 0.0267857)
(2.64411 0.211702 0.0267857)
(2.67542 0.201375 0.0267857)
(2.70679 0.191233 0.0267857)
(2.73822 0.181288 0.0267857)
(2.76971 0.171551 0.0267857)
(2.80127 0.162035 0.0267857)
(2.83291 0.152751 0.0267857)
(2.86461 0.143713 0.0267857)
(2.89639 0.134931 0.0267857)
(2.92823 0.126408 0.0267857)
(2.96015 0.118148 0.0267857)
(2.99213 0.110152 0.0267857)
(3.02418 0.102425 0.0267857)
(3.05629 0.0949672 0.0267857)
(3.08846 0.0877833 0.0267857)
(3.1207 0.0808753 0.0267857)
(3.15299 0.0742453 0.0267857)
(3.18534 0.0678962 0.0267857)
(3.21775 0.06183 0.0267857)
(3.2502 0.0560494 0.0267857)
(3.28271 0.0505568 0.0267857)
(3.31526 0.0453545 0.0267857)
(3.34786 0.0404446 0.0267857)
(3.38051 0.0358291 0.0267857)
(3.41319 0.0315101 0.0267857)
(3.44591 0.0274895 0.0267857)
(3.47867 0.0237696 0.0267857)
(3.51146 0.0203519 0.0267857)
(3.54428 0.0172381 0.0267857)
(3.57712 0.0144295 0.0267857)
(3.61 0.0119284 0.0267857)
(3.64289 0.00973656 0.0267857)
(3.6758 0.00785356 0.0267857)
(3.70873 0.00628153 0.0267857)
(3.74168 0.00502243 0.0267857)
(3.77463 0.00407612 0.0267857)
(3.80759 0.00344391 0.0267857)
(3.84093 0.00312419 0.0267857)
(3.8739 0.00304452 0.0267857)
(3.9065 0.00304722 0.0267857)
(3.93946 0.00304722 0.0267857)
(3.97243 0.00304722 0.0267857)
(4.0054 0.00304722 0.0267857)
(4.03837 0.00304722 0.0267857)
(4.07134 0.00304722 0.0267857)
(4.10431 0.00304722 0.0267857)
(4.13728 0.00304722 0.0267857)
(4.17024 0.00304722 0.0267857)
(4.20321 0.00304722 0.0267857)
(4.23618 0.00304722 0.0267857)
(4.26915 0.00304722 0.0267857)
(4.30212 0.00304722 0.0267857)
(4.33509 0.00304722 0.0267857)
(4.36805 0.00304722 0.0267857)
(4.40102 0.00304722 0.0267857)
(4.43399 0.00304722 0.0267857)
(4.46696 0.00304722 0.0267857)
(4.49993 0.00304722 0.0267857)
(4.5329 0.00304722 0.0267857)
(4.56586 0.00304722 0.0267857)
(4.59883 0.00304722 0.0267857)
(4.6318 0.00304722 0.0267857)
(4.66477 0.00304722 0.0267857)
(4.69773 0.00304722 0.0267857)
(4.7307 0.00304722 0.0267857)
(4.76367 0.00304722 0.0267857)
(4.79664 0.00304722 0.0267857)
(4.82961 0.00304722 0.0267857)
(4.86258 0.00304722 0.0267857)
(4.89554 0.00304722 0.0267857)
(4.92851 0.00304722 0.0267857)
(4.96148 0.00304722 0.0267857)
(4.99445 0.00304722 0.0267857)
(5.02742 0.00304722 0.0267857)
(5.06039 0.00304722 0.0267857)
(5.09335 0.00304722 0.0267857)
(5.12632 0.00304722 0.0267857)
(5.15929 0.00304722 0.0267857)
(5.19226 0.00304722 0.0267857)
(5.22523 0.00304722 0.0267857)
(5.2582 0.00304722 0.0267857)
(5.29117 0.00304722 0.0267857)
(5.32413 0.00304722 0.0267857)
(5.3571 0.00304722 0.0267857)
(5.39007 0.00304722 0.0267857)
(5.42304 0.00304722 0.0267857)
(5.45601 0.00304722 0.0267857)
(5.48897 0.00304722 0.0267857)
(5.52194 0.00304722 0.0267857)
(5.55491 0.00304722 0.0267857)
(5.58788 0.00304722 0.0267857)
(5.62085 0.00304722 0.0267857)
(5.65382 0.00304722 0.0267857)
(5.68679 0.00304722 0.0267857)
(5.71975 0.00304722 0.0267857)
(5.75272 0.00304722 0.0267857)
(5.78569 0.00304722 0.0267857)
(5.81866 0.00304722 0.0267857)
(5.85163 0.00304722 0.0267857)
(5.8846 0.00304722 0.0267857)
(5.91756 0.00304722 0.0267857)
(5.95053 0.00304722 0.0267857)
(5.9835 0.00304722 0.0267857)
(6.01647 0.00304722 0.0267857)
(6.04944 0.00304722 0.0267857)
(6.08241 0.00304722 0.0267857)
(6.11538 0.00304722 0.0267857)
(6.14834 0.00304722 0.0267857)
(6.18131 0.00304722 0.0267857)
(6.21428 0.00304722 0.0267857)
(6.24725 0.00304722 0.0267857)
(6.28022 0.00304722 0.0267857)
(6.31318 0.00304722 0.0267857)
(6.34615 0.00304722 0.0267857)
(6.37912 0.00304722 0.0267857)
(6.41209 0.00304722 0.0267857)
(6.44506 0.00304722 0.0267857)
(6.47803 0.00304722 0.0267857)
(6.511 0.00304722 0.0267857)
(6.54396 0.00304722 0.0267857)
(6.57693 0.00304722 0.0267857)
(6.6099 0.00304722 0.0267857)
(6.64287 0.00304722 0.0267857)
(6.67584 0.00304722 0.0267857)
(6.70881 0.00304722 0.0267857)
(6.74177 0.00304722 0.0267857)
(6.77474 0.00304722 0.0267857)
(6.80771 0.00304722 0.0267857)
(6.84068 0.00304722 0.0267857)
(6.87365 0.00304722 0.0267857)
(6.90662 0.00304722 0.0267857)
(6.93959 0.00304722 0.0267857)
(6.97255 0.00304722 0.0267857)
(7.00552 0.00304722 0.0267857)
(7.03849 0.00304722 0.0267857)
(7.07146 0.00304722 0.0267857)
(7.10443 0.00304722 0.0267857)
(7.13739 0.00304722 0.0267857)
(7.17036 0.00304722 0.0267857)
(7.20333 0.00304722 0.0267857)
(7.2363 0.00304722 0.0267857)
(7.26927 0.00304722 0.0267857)
(7.30224 0.00304722 0.0267857)
(7.3352 0.00304722 0.0267857)
(7.36817 0.00304722 0.0267857)
(7.40114 0.00304722 0.0267857)
(7.43411 0.00304722 0.0267857)
(7.46708 0.00304722 0.0267857)
(7.50005 0.00304722 0.0267857)
(7.53301 0.00304722 0.0267857)
(7.56598 0.00304722 0.0267857)
(7.59895 0.00304722 0.0267857)
(7.63192 0.00304722 0.0267857)
(7.66488 0.00304722 0.0267857)
(7.69785 0.00304722 0.0267857)
(7.73082 0.00304722 0.0267857)
(7.76379 0.00304722 0.0267857)
(7.79676 0.00304722 0.0267857)
(7.82973 0.00304722 0.0267857)
(7.8627 0.00304722 0.0267857)
(7.89566 0.00304722 0.0267857)
(7.92863 0.00304722 0.0267857)
(7.9616 0.00304722 0.0267857)
(7.99457 0.00304722 0.0267857)
(8.02754 0.00304722 0.0267857)
(8.06051 0.00304722 0.0267857)
(8.09347 0.00304722 0.0267857)
(8.12644 0.00304722 0.0267857)
(8.15941 0.00304722 0.0267857)
(8.19238 0.00304722 0.0267857)
(8.22535 0.00304722 0.0267857)
(8.25832 0.00304722 0.0267857)
(8.29128 0.00304722 0.0267857)
(8.32425 0.00304722 0.0267857)
(8.35722 0.00304722 0.0267857)
(8.39019 0.00304722 0.0267857)
(8.42316 0.00304722 0.0267857)
(8.45613 0.00304722 0.0267857)
(8.4891 0.00304722 0.0267857)
(8.52206 0.00304722 0.0267857)
(8.55503 0.00304722 0.0267857)
(8.588 0.00304722 0.0267857)
(8.62097 0.00304722 0.0267857)
(8.65394 0.00304722 0.0267857)
(8.6869 0.00304722 0.0267857)
(8.71987 0.00304722 0.0267857)
(8.75284 0.00304722 0.0267857)
(8.78581 0.00304722 0.0267857)
(8.81878 0.00304722 0.0267857)
(8.85175 0.00304722 0.0267857)
(8.88472 0.00304722 0.0267857)
(8.91768 0.00304722 0.0267857)
(8.95065 0.00304722 0.0267857)
(8.98325 0.00304452 0.0267857)
(9.01622 0.00312419 0.0267857)
(9.04956 0.00344391 0.0267857)
(9.08252 0.00407612 0.0267857)
(9.11547 0.00502243 0.0267857)
(9.14841 0.00628153 0.0267857)
(9.18134 0.00785356 0.0267857)
(9.21426 0.00973657 0.0267857)
(9.24715 0.0119285 0.0267857)
(9.28003 0.0144301 0.0267857)
(9.31287 0.0172389 0.0267857)
(9.34569 0.0203518 0.0267857)
(9.37848 0.023769 0.0267857)
(9.41124 0.0274898 0.0267857)
(9.44396 0.0315103 0.0267857)
(9.47664 0.0358277 0.0267857)
(9.50929 0.0404443 0.0267857)
(9.54188 0.0453552 0.0267857)
(9.57444 0.0505559 0.0267857)
(9.60694 0.0560497 0.0267857)
(9.6394 0.0618312 0.0267857)
(9.67181 0.0678954 0.0267857)
(9.70416 0.0742452 0.0267857)
(9.73645 0.0808766 0.0267857)
(9.76868 0.0877834 0.0267857)
(9.80086 0.0949653 0.0267857)
(9.83297 0.102424 0.0267857)
(9.86502 0.110153 0.0267857)
(9.897 0.118147 0.0267857)
(9.92892 0.126409 0.0267857)
(9.96076 0.134933 0.0267857)
(9.99254 0.143712 0.0267857)
(10.0242 0.152752 0.0267857)
(10.0559 0.162037 0.0267857)
(10.0874 0.171551 0.0267857)
(10.1189 0.181286 0.0267857)
(10.1504 0.191233 0.0267857)
(10.1817 0.201377 0.0267857)
(10.213 0.2117 0.0267857)
(10.2443 0.2222 0.0267857)
(10.2755 0.232863 0.0267857)
(10.3066 0.243673 0.0267857)
(10.3377 0.254626 0.0267857)
(10.3688 0.265708 0.0267857)
(10.3998 0.276904 0.0267857)
(10.4307 0.288208 0.0267857)
(10.4617 0.299615 0.0267857)
(10.4926 0.311109 0.0267857)
(10.5234 0.322677 0.0267857)
(10.5543 0.334315 0.0267857)
(10.5851 0.346015 0.0267857)
(10.6159 0.357762 0.0267857)
(10.6467 0.369545 0.0267857)
(10.6775 0.381363 0.0267857)
(10.7082 0.393203 0.0267857)
(10.739 0.40505 0.0267857)
(10.7698 0.416916 0.0267857)
(10.8005 0.428797 0.0267857)
(10.8313 0.44069 0.0267857)
(10.862 0.452604 0.0267857)
(10.8927 0.464548 0.0267857)
(10.9234 0.476519 0.0267857)
(10.9541 0.488514 0.0267857)
(10.9848 0.500546 0.0267857)
(11.0155 0.512617 0.0267857)
(11.0462 0.524725 0.0267857)
(11.0768 0.536876 0.0267857)
(11.1074 0.549074 0.0267857)
(11.138 0.561315 0.0267857)
(11.1686 0.573606 0.0267857)
(11.1992 0.585956 0.0267857)
(11.2297 0.598363 0.0267857)
(11.2603 0.610823 0.0267857)
(11.2908 0.623346 0.0267857)
(11.3212 0.635938 0.0267857)
(11.3517 0.648598 0.0267857)
(11.3821 0.661323 0.0267857)
(11.4125 0.674124 0.0267857)
(11.4428 0.687001 0.0267857)
(11.4731 0.699938 0.0267857)
(11.5034 0.712921 0.0267857)
(11.5337 0.725926 0.0267857)
(11.564 0.738926 0.0267857)
(11.5943 0.751899 0.0267857)
(11.6246 0.764832 0.0267857)
(11.655 0.777697 0.0267857)
(11.6854 0.790462 0.0267857)
(11.7158 0.80311 0.0267857)
(11.7463 0.815626 0.0267857)
(11.7769 0.827979 0.0267857)
(11.8075 0.840136 0.0267857)
(11.8383 0.852081 0.0267857)
(11.8691 0.863787 0.0267857)
(11.9 0.875218 0.0267857)
(11.931 0.886345 0.0267857)
(11.9622 0.897136 0.0267857)
(11.9935 0.907552 0.0267857)
(12.0249 0.917556 0.0267857)
(12.0564 0.927113 0.0267857)
(12.0881 0.936182 0.0267857)
(12.12 0.944713 0.0267857)
(12.152 0.95267 0.0267857)
(12.1841 0.960011 0.0267857)
(12.2164 0.966681 0.0267857)
(12.2488 0.97266 0.0267857)
(12.2813 0.977959 0.0267857)
(12.314 0.982609 0.0267857)
(12.3467 0.986649 0.0267857)
(12.3795 0.990116 0.0267857)
(12.4123 0.993047 0.0267857)
(12.4452 0.995484 0.0267857)
(12.4781 0.997471 0.0267857)
(12.511 0.999049 0.0267857)
(12.544 1.00026 0.0267857)
(12.5769 1.00115 0.0267857)
(12.6099 1.00177 0.0267857)
(12.6429 1.00215 0.0267857)
(12.6758 1.00234 0.0267857)
(12.7088 1.0024 0.0267857)
(12.7418 1.00235 0.0267857)
(12.7747 1.00225 0.0267857)
(12.8077 1.00214 0.0267857)
(12.8407 1.00207 0.0267857)
(0.0164833 1.00619 0.0267857)
(0.0494498 1.00626 0.0267857)
(0.0824162 1.00637 0.0267857)
(0.115383 1.00647 0.0267857)
(0.14835 1.00652 0.0267857)
(0.181316 1.00646 0.0267857)
(0.214282 1.00627 0.0267857)
(0.247247 1.00589 0.0267857)
(0.280208 1.00528 0.0267857)
(0.313162 1.00439 0.0267857)
(0.346106 1.00318 0.0267857)
(0.379035 1.0016 0.0267857)
(0.411941 0.999618 0.0267857)
(0.444817 0.997185 0.0267857)
(0.477652 0.99426 0.0267857)
(0.510435 0.990801 0.0267857)
(0.543152 0.986768 0.0267857)
(0.575787 0.982127 0.0267857)
(0.608323 0.97684 0.0267857)
(0.640743 0.970873 0.0267857)
(0.673026 0.964216 0.0267857)
(0.705167 0.956892 0.0267857)
(0.737158 0.94895 0.0267857)
(0.769 0.940434 0.0267857)
(0.800697 0.931386 0.0267857)
(0.832248 0.92185 0.0267857)
(0.863664 0.911863 0.0267857)
(0.894943 0.901467 0.0267857)
(0.926093 0.8907 0.0267857)
(0.957129 0.879595 0.0267857)
(0.988052 0.868187 0.0267857)
(1.01887 0.856508 0.0267857)
(1.0496 0.844586 0.0267857)
(1.08025 0.83245 0.0267857)
(1.11082 0.820125 0.0267857)
(1.14132 0.807637 0.0267857)
(1.17176 0.795011 0.0267857)
(1.20216 0.782268 0.0267857)
(1.23252 0.769433 0.0267857)
(1.26285 0.756528 0.0267857)
(1.29316 0.743577 0.0267857)
(1.32345 0.730603 0.0267857)
(1.35375 0.717627 0.0267857)
(1.38406 0.704671 0.0267857)
(1.41438 0.691759 0.0267857)
(1.44473 0.678912 0.0267857)
(1.47512 0.666136 0.0267857)
(1.50553 0.653433 0.0267857)
(1.53597 0.6408 0.0267857)
(1.56644 0.628236 0.0267857)
(1.59694 0.615737 0.0267857)
(1.62746 0.603298 0.0267857)
(1.658 0.590919 0.0267857)
(1.68857 0.578595 0.0267857)
(1.71916 0.566326 0.0267857)
(1.74978 0.554109 0.0267857)
(1.78041 0.541939 0.0267857)
(1.81105 0.529813 0.0267857)
(1.84172 0.517729 0.0267857)
(1.8724 0.505684 0.0267857)
(1.90309 0.493676 0.0267857)
(1.9338 0.481702 0.0267857)
(1.96452 0.469757 0.0267857)
(1.99525 0.45784 0.0267857)
(2.02599 0.445948 0.0267857)
(2.05674 0.434075 0.0267857)
(2.08749 0.42222 0.0267857)
(2.11825 0.410381 0.0267857)
(2.14902 0.398555 0.0267857)
(2.17979 0.386742 0.0267857)
(2.21057 0.37495 0.0267857)
(2.24136 0.363187 0.0267857)
(2.27216 0.351464 0.0267857)
(2.30299 0.33979 0.0267857)
(2.33383 0.328175 0.0267857)
(2.3647 0.316627 0.0267857)
(2.3956 0.305159 0.0267857)
(2.42654 0.293777 0.0267857)
(2.45751 0.282493 0.0267857)
(2.48851 0.271317 0.0267857)
(2.51957 0.260259 0.0267857)
(2.55066 0.24933 0.0267857)
(2.58181 0.238541 0.0267857)
(2.61301 0.227902 0.0267857)
(2.64426 0.217424 0.0267857)
(2.67556 0.207118 0.0267857)
(2.70693 0.196996 0.0267857)
(2.73837 0.187071 0.0267857)
(2.76986 0.177354 0.0267857)
(2.80143 0.167857 0.0267857)
(2.83306 0.158592 0.0267857)
(2.86477 0.149572 0.0267857)
(2.89654 0.140808 0.0267857)
(2.92839 0.132302 0.0267857)
(2.9603 0.124059 0.0267857)
(2.99229 0.11608 0.0267857)
(3.02433 0.108368 0.0267857)
(3.05645 0.100925 0.0267857)
(3.08862 0.093756 0.0267857)
(3.12086 0.086862 0.0267857)
(3.15315 0.0802455 0.0267857)
(3.1855 0.0739092 0.0267857)
(3.2179 0.0678554 0.0267857)
(3.25036 0.0620865 0.0267857)
(3.28286 0.056605 0.0267857)
(3.31542 0.0514132 0.0267857)
(3.34802 0.0465133 0.0267857)
(3.38066 0.0419071 0.0267857)
(3.41334 0.0375969 0.0267857)
(3.44606 0.0335844 0.0267857)
(3.47881 0.0298721 0.0267857)
(3.5116 0.0264613 0.0267857)
(3.54442 0.0233538 0.0267857)
(3.57727 0.0205509 0.0267857)
(3.61014 0.0180549 0.0267857)
(3.64303 0.0158674 0.0267857)
(3.67594 0.0139883 0.0267857)
(3.70887 0.0124194 0.0267857)
(3.74182 0.0111629 0.0267857)
(3.77477 0.0102185 0.0267857)
(3.80772 0.00958754 0.0267857)
(3.84106 0.00926847 0.0267857)
(3.87403 0.00918896 0.0267857)
(3.90662 0.00919165 0.0267857)
(3.93959 0.00919165 0.0267857)
(3.97256 0.00919165 0.0267857)
(4.00552 0.00919165 0.0267857)
(4.03849 0.00919165 0.0267857)
(4.07146 0.00919165 0.0267857)
(4.10442 0.00919165 0.0267857)
(4.13739 0.00919165 0.0267857)
(4.17036 0.00919165 0.0267857)
(4.20332 0.00919165 0.0267857)
(4.23629 0.00919165 0.0267857)
(4.26926 0.00919165 0.0267857)
(4.30222 0.00919165 0.0267857)
(4.33519 0.00919165 0.0267857)
(4.36816 0.00919165 0.0267857)
(4.40112 0.00919165 0.0267857)
(4.43409 0.00919165 0.0267857)
(4.46705 0.00919165 0.0267857)
(4.50002 0.00919165 0.0267857)
(4.53299 0.00919165 0.0267857)
(4.56596 0.00919165 0.0267857)
(4.59892 0.00919165 0.0267857)
(4.63189 0.00919165 0.0267857)
(4.66486 0.00919165 0.0267857)
(4.69782 0.00919165 0.0267857)
(4.73079 0.00919165 0.0267857)
(4.76376 0.00919165 0.0267857)
(4.79672 0.00919165 0.0267857)
(4.82969 0.00919165 0.0267857)
(4.86266 0.00919165 0.0267857)
(4.89562 0.00919165 0.0267857)
(4.92859 0.00919165 0.0267857)
(4.96156 0.00919165 0.0267857)
(4.99453 0.00919165 0.0267857)
(5.02749 0.00919165 0.0267857)
(5.06046 0.00919165 0.0267857)
(5.09342 0.00919165 0.0267857)
(5.12639 0.00919165 0.0267857)
(5.15936 0.00919165 0.0267857)
(5.19233 0.00919165 0.0267857)
(5.22529 0.00919165 0.0267857)
(5.25826 0.00919165 0.0267857)
(5.29122 0.00919165 0.0267857)
(5.32419 0.00919165 0.0267857)
(5.35716 0.00919165 0.0267857)
(5.39013 0.00919165 0.0267857)
(5.42309 0.00919165 0.0267857)
(5.45606 0.00919165 0.0267857)
(5.48902 0.00919165 0.0267857)
(5.52199 0.00919165 0.0267857)
(5.55496 0.00919165 0.0267857)
(5.58792 0.00919165 0.0267857)
(5.62089 0.00919165 0.0267857)
(5.65386 0.00919165 0.0267857)
(5.68682 0.00919165 0.0267857)
(5.71979 0.00919165 0.0267857)
(5.75276 0.00919165 0.0267857)
(5.78572 0.00919165 0.0267857)
(5.81869 0.00919165 0.0267857)
(5.85166 0.00919165 0.0267857)
(5.88462 0.00919165 0.0267857)
(5.91759 0.00919165 0.0267857)
(5.95056 0.00919165 0.0267857)
(5.98352 0.00919165 0.0267857)
(6.01649 0.00919165 0.0267857)
(6.04946 0.00919165 0.0267857)
(6.08243 0.00919165 0.0267857)
(6.11539 0.00919165 0.0267857)
(6.14836 0.00919165 0.0267857)
(6.18132 0.00919165 0.0267857)
(6.21429 0.00919165 0.0267857)
(6.24726 0.00919165 0.0267857)
(6.28023 0.00919165 0.0267857)
(6.31319 0.00919165 0.0267857)
(6.34616 0.00919165 0.0267857)
(6.37912 0.00919165 0.0267857)
(6.41209 0.00919165 0.0267857)
(6.44506 0.00919165 0.0267857)
(6.47803 0.00919165 0.0267857)
(6.51099 0.00919165 0.0267857)
(6.54396 0.00919165 0.0267857)
(6.57692 0.00919165 0.0267857)
(6.60989 0.00919165 0.0267857)
(6.64286 0.00919165 0.0267857)
(6.67582 0.00919165 0.0267857)
(6.70879 0.00919165 0.0267857)
(6.74176 0.00919165 0.0267857)
(6.77472 0.00919165 0.0267857)
(6.80769 0.00919165 0.0267857)
(6.84066 0.00919165 0.0267857)
(6.87362 0.00919165 0.0267857)
(6.90659 0.00919165 0.0267857)
(6.93956 0.00919165 0.0267857)
(6.97252 0.00919165 0.0267857)
(7.00549 0.00919165 0.0267857)
(7.03846 0.00919165 0.0267857)
(7.07142 0.00919165 0.0267857)
(7.10439 0.00919165 0.0267857)
(7.13736 0.00919165 0.0267857)
(7.17032 0.00919165 0.0267857)
(7.20329 0.00919165 0.0267857)
(7.23626 0.00919165 0.0267857)
(7.26922 0.00919165 0.0267857)
(7.30219 0.00919165 0.0267857)
(7.33516 0.00919165 0.0267857)
(7.36813 0.00919165 0.0267857)
(7.40109 0.00919165 0.0267857)
(7.43406 0.00919165 0.0267857)
(7.46702 0.00919165 0.0267857)
(7.49999 0.00919165 0.0267857)
(7.53296 0.00919165 0.0267857)
(7.56592 0.00919165 0.0267857)
(7.59889 0.00919165 0.0267857)
(7.63186 0.00919165 0.0267857)
(7.66482 0.00919165 0.0267857)
(7.69779 0.00919165 0.0267857)
(7.73076 0.00919165 0.0267857)
(7.76373 0.00919165 0.0267857)
(7.79669 0.00919165 0.0267857)
(7.82966 0.00919165 0.0267857)
(7.86262 0.00919165 0.0267857)
(7.89559 0.00919165 0.0267857)
(7.92856 0.00919165 0.0267857)
(7.96153 0.00919165 0.0267857)
(7.99449 0.00919165 0.0267857)
(8.02746 0.00919165 0.0267857)
(8.06042 0.00919165 0.0267857)
(8.09339 0.00919165 0.0267857)
(8.12636 0.00919165 0.0267857)
(8.15933 0.00919165 0.0267857)
(8.19229 0.00919165 0.0267857)
(8.22526 0.00919165 0.0267857)
(8.25822 0.00919165 0.0267857)
(8.29119 0.00919165 0.0267857)
(8.32416 0.00919165 0.0267857)
(8.35712 0.00919165 0.0267857)
(8.39009 0.00919165 0.0267857)
(8.42306 0.00919165 0.0267857)
(8.45602 0.00919165 0.0267857)
(8.48899 0.00919165 0.0267857)
(8.52196 0.00919165 0.0267857)
(8.55492 0.00919165 0.0267857)
(8.58789 0.00919165 0.0267857)
(8.62086 0.00919165 0.0267857)
(8.65383 0.00919165 0.0267857)
(8.68679 0.00919165 0.0267857)
(8.71976 0.00919165 0.0267857)
(8.75272 0.00919165 0.0267857)
(8.78569 0.00919165 0.0267857)
(8.81866 0.00919165 0.0267857)
(8.85163 0.00919165 0.0267857)
(8.88459 0.00919165 0.0267857)
(8.91756 0.00919165 0.0267857)
(8.95052 0.00919165 0.0267857)
(8.98312 0.00918896 0.0267857)
(9.01608 0.00926847 0.0267857)
(9.04942 0.00958754 0.0267857)
(9.08238 0.0102185 0.0267857)
(9.11533 0.0111629 0.0267857)
(9.14828 0.0124194 0.0267857)
(9.1812 0.0139883 0.0267857)
(9.21412 0.0158674 0.0267857)
(9.24701 0.0180549 0.0267857)
(9.27988 0.0205515 0.0267857)
(9.31273 0.0233546 0.0267857)
(9.34555 0.0264612 0.0267857)
(9.37833 0.0298715 0.0267857)
(9.41109 0.0335847 0.0267857)
(9.44381 0.0375971 0.0267857)
(9.47649 0.0419057 0.0267857)
(9.50913 0.0465129 0.0267857)
(9.54173 0.0514139 0.0267857)
(9.57429 0.0566041 0.0267857)
(9.60679 0.0620867 0.0267857)
(9.63924 0.0678566 0.0267857)
(9.67165 0.0739084 0.0267857)
(9.704 0.0802453 0.0267857)
(9.73629 0.0868633 0.0267857)
(9.76853 0.0937562 0.0267857)
(9.8007 0.100924 0.0267857)
(9.83281 0.108367 0.0267857)
(9.86486 0.11608 0.0267857)
(9.89685 0.124058 0.0267857)
(9.92876 0.132304 0.0267857)
(9.96061 0.14081 0.0267857)
(9.99238 0.149572 0.0267857)
(10.0241 0.158593 0.0267857)
(10.0557 0.167859 0.0267857)
(10.0873 0.177354 0.0267857)
(10.1188 0.187069 0.0267857)
(10.1502 0.196997 0.0267857)
(10.1816 0.207119 0.0267857)
(10.2129 0.217422 0.0267857)
(10.2441 0.2279 0.0267857)
(10.2753 0.238542 0.0267857)
(10.3065 0.24933 0.0267857)
(10.3376 0.26026 0.0267857)
(10.3686 0.27132 0.0267857)
(10.3996 0.282494 0.0267857)
(10.4306 0.293774 0.0267857)
(10.4615 0.305158 0.0267857)
(10.4924 0.31663 0.0267857)
(10.5233 0.328174 0.0267857)
(10.5542 0.339788 0.0267857)
(10.585 0.351465 0.0267857)
(10.6158 0.363188 0.0267857)
(10.6466 0.374947 0.0267857)
(10.6774 0.386741 0.0267857)
(10.7081 0.398557 0.0267857)
(10.7389 0.41038 0.0267857)
(10.7697 0.422222 0.0267857)
(10.8004 0.434079 0.0267857)
(10.8312 0.445947 0.0267857)
(10.8619 0.457838 0.0267857)
(10.8926 0.469757 0.0267857)
(10.9233 0.481704 0.0267857)
(10.9541 0.493675 0.0267857)
(10.9847 0.505683 0.0267857)
(11.0154 0.517729 0.0267857)
(11.0461 0.529812 0.0267857)
(11.0767 0.541939 0.0267857)
(11.1074 0.554112 0.0267857)
(11.138 0.566328 0.0267857)
(11.1686 0.578594 0.0267857)
(11.1991 0.590919 0.0267857)
(11.2297 0.603301 0.0267857)
(11.2602 0.615736 0.0267857)
(11.2907 0.628233 0.0267857)
(11.3212 0.6408 0.0267857)
(11.3516 0.653435 0.0267857)
(11.382 0.666134 0.0267857)
(11.4124 0.678909 0.0267857)
(11.4428 0.69176 0.0267857)
(11.4731 0.704671 0.0267857)
(11.5034 0.717627 0.0267857)
(11.5337 0.730606 0.0267857)
(11.564 0.743579 0.0267857)
(11.5943 0.756526 0.0267857)
(11.6246 0.769433 0.0267857)
(11.655 0.782272 0.0267857)
(11.6854 0.795011 0.0267857)
(11.7158 0.807634 0.0267857)
(11.7463 0.820124 0.0267857)
(11.7769 0.832452 0.0267857)
(11.8075 0.844584 0.0267857)
(11.8383 0.856505 0.0267857)
(11.8691 0.868187 0.0267857)
(11.9 0.879595 0.0267857)
(11.9311 0.8907 0.0267857)
(11.9622 0.901469 0.0267857)
(11.9935 0.911864 0.0267857)
(12.0249 0.921848 0.0267857)
(12.0565 0.931386 0.0267857)
(12.0881 0.940436 0.0267857)
(12.12 0.948949 0.0267857)
(12.152 0.956891 0.0267857)
(12.1841 0.964217 0.0267857)
(12.2164 0.970873 0.0267857)
(12.2488 0.97684 0.0267857)
(12.2814 0.982128 0.0267857)
(12.314 0.986769 0.0267857)
(12.3467 0.990801 0.0267857)
(12.3795 0.99426 0.0267857)
(12.4123 0.997185 0.0267857)
(12.4452 0.999618 0.0267857)
(12.4781 1.0016 0.0267857)
(12.511 1.00318 0.0267857)
(12.544 1.00439 0.0267857)
(12.5769 1.00528 0.0267857)
(12.6099 1.00589 0.0267857)
(12.6429 1.00627 0.0267857)
(12.6758 1.00646 0.0267857)
(12.7088 1.00652 0.0267857)
(12.7418 1.00647 0.0267857)
(12.7747 1.00637 0.0267857)
(12.8077 1.00626 0.0267857)
(12.8407 1.00619 0.0267857)
(0.0164824 1.01037 0.0267857)
(0.0494472 1.01045 0.0267857)
(0.082412 1.01056 0.0267857)
(0.115377 1.01066 0.0267857)
(0.148342 1.0107 0.0267857)
(0.181307 1.01065 0.0267857)
(0.214271 1.01046 0.0267857)
(0.247234 1.01008 0.0267857)
(0.280193 1.00947 0.0267857)
(0.313146 1.00858 0.0267857)
(0.346089 1.00737 0.0267857)
(0.379015 1.0058 0.0267857)
(0.411921 1.00382 0.0267857)
(0.444795 1.00139 0.0267857)
(0.477629 0.998473 0.0267857)
(0.51041 0.995021 0.0267857)
(0.543125 0.990996 0.0267857)
(0.57576 0.986364 0.0267857)
(0.608295 0.981088 0.0267857)
(0.640714 0.975134 0.0267857)
(0.672997 0.968491 0.0267857)
(0.705138 0.961182 0.0267857)
(0.73713 0.953256 0.0267857)
(0.768972 0.944758 0.0267857)
(0.80067 0.935728 0.0267857)
(0.832222 0.926212 0.0267857)
(0.863639 0.916246 0.0267857)
(0.89492 0.905871 0.0267857)
(0.926073 0.895126 0.0267857)
(0.957111 0.884044 0.0267857)
(0.988036 0.87266 0.0267857)
(1.01886 0.861005 0.0267857)
(1.04959 0.849108 0.0267857)
(1.08024 0.836996 0.0267857)
(1.11081 0.824696 0.0267857)
(1.14132 0.812235 0.0267857)
(1.17177 0.799635 0.0267857)
(1.20217 0.786918 0.0267857)
(1.23253 0.77411 0.0267857)
(1.26286 0.761231 0.0267857)
(1.29317 0.748307 0.0267857)
(1.32348 0.73536 0.0267857)
(1.35378 0.72241 0.0267857)
(1.38409 0.709481 0.0267857)
(1.41441 0.696596 0.0267857)
(1.44477 0.683775 0.0267857)
(1.47516 0.671025 0.0267857)
(1.50557 0.658348 0.0267857)
(1.53602 0.645742 0.0267857)
(1.56649 0.633204 0.0267857)
(1.59699 0.62073 0.0267857)
(1.62752 0.608317 0.0267857)
(1.65807 0.595963 0.0267857)
(1.68864 0.583666 0.0267857)
(1.71923 0.571422 0.0267857)
(1.74985 0.559229 0.0267857)
(1.78048 0.547084 0.0267857)
(1.81113 0.534984 0.0267857)
(1.8418 0.522925 0.0267857)
(1.87248 0.510905 0.0267857)
(1.90318 0.498922 0.0267857)
(1.93389 0.486972 0.0267857)
(1.96461 0.475052 0.0267857)
(1.99535 0.46316 0.0267857)
(2.02609 0.451291 0.0267857)
(2.05684 0.439444 0.0267857)
(2.0876 0.427613 0.0267857)
(2.11836 0.415799 0.0267857)
(2.14913 0.403997 0.0267857)
(2.1799 0.392208 0.0267857)
(2.21068 0.38044 0.0267857)
(2.24147 0.368702 0.0267857)
(2.27228 0.357002 0.0267857)
(2.30311 0.345353 0.0267857)
(2.33396 0.333762 0.0267857)
(2.36483 0.322238 0.0267857)
(2.39573 0.310793 0.0267857)
(2.42667 0.299435 0.0267857)
(2.45764 0.288174 0.0267857)
(2.48865 0.277021 0.0267857)
(2.51971 0.265986 0.0267857)
(2.5508 0.25508 0.0267857)
(2.58195 0.244313 0.0267857)
(2.61315 0.233696 0.0267857)
(2.6444 0.223239 0.0267857)
(2.67571 0.212955 0.0267857)
(2.70709 0.202854 0.0267857)
(2.73852 0.192949 0.0267857)
(2.77002 0.183252 0.0267857)
(2.80158 0.173775 0.0267857)
(2.83322 0.164529 0.0267857)
(2.86492 0.155528 0.0267857)
(2.8967 0.146782 0.0267857)
(2.92855 0.138293 0.0267857)
(2.96046 0.130067 0.0267857)
(2.99245 0.122104 0.0267857)
(3.02449 0.114408 0.0267857)
(3.05661 0.106981 0.0267857)
(3.08878 0.0998267 0.0267857)
(3.12102 0.0929469 0.0267857)
(3.15331 0.086344 0.0267857)
(3.18566 0.0800208 0.0267857)
(3.21806 0.0739795 0.0267857)
(3.25052 0.0682225 0.0267857)
(3.28302 0.0627523 0.0267857)
(3.31557 0.0575712 0.0267857)
(3.34817 0.0526814 0.0267857)
(3.38081 0.0480848 0.0267857)
(3.41349 0.0437834 0.0267857)
(3.44621 0.0397793 0.0267857)
(3.47897 0.0360745 0.0267857)
(3.51175 0.0326708 0.0267857)
(3.54457 0.0295697 0.0267857)
(3.57741 0.0267726 0.0267857)
(3.61028 0.0242817 0.0267857)
(3.64318 0.0220988 0.0267857)
(3.67609 0.0202235 0.0267857)
(3.70901 0.0186579 0.0267857)
(3.74195 0.0174039 0.0267857)
(3.7749 0.0164615 0.0267857)
(3.80786 0.0158319 0.0267857)
(3.8412 0.0155135 0.0267857)
(3.87416 0.0154341 0.0267857)
(3.90675 0.0154368 0.0267857)
(3.93972 0.0154368 0.0267857)
(3.97268 0.0154368 0.0267857)
(4.00565 0.0154368 0.0267857)
(4.03861 0.0154368 0.0267857)
(4.07158 0.0154368 0.0267857)
(4.10454 0.0154368 0.0267857)
(4.13751 0.0154368 0.0267857)
(4.17047 0.0154368 0.0267857)
(4.20344 0.0154368 0.0267857)
(4.2364 0.0154368 0.0267857)
(4.26937 0.0154368 0.0267857)
(4.30233 0.0154368 0.0267857)
(4.3353 0.0154368 0.0267857)
(4.36826 0.0154368 0.0267857)
(4.40123 0.0154368 0.0267857)
(4.43419 0.0154368 0.0267857)
(4.46716 0.0154368 0.0267857)
(4.50012 0.0154368 0.0267857)
(4.53309 0.0154368 0.0267857)
(4.56605 0.0154368 0.0267857)
(4.59902 0.0154368 0.0267857)
(4.63198 0.0154368 0.0267857)
(4.66495 0.0154368 0.0267857)
(4.69791 0.0154368 0.0267857)
(4.73088 0.0154368 0.0267857)
(4.76384 0.0154368 0.0267857)
(4.79681 0.0154368 0.0267857)
(4.82977 0.0154368 0.0267857)
(4.86274 0.0154368 0.0267857)
(4.8957 0.0154368 0.0267857)
(4.92867 0.0154368 0.0267857)
(4.96163 0.0154368 0.0267857)
(4.9946 0.0154368 0.0267857)
(5.02756 0.0154368 0.0267857)
(5.06053 0.0154368 0.0267857)
(5.09349 0.0154368 0.0267857)
(5.12646 0.0154368 0.0267857)
(5.15942 0.0154368 0.0267857)
(5.19239 0.0154368 0.0267857)
(5.22535 0.0154368 0.0267857)
(5.25832 0.0154368 0.0267857)
(5.29128 0.0154368 0.0267857)
(5.32425 0.0154368 0.0267857)
(5.35721 0.0154368 0.0267857)
(5.39018 0.0154368 0.0267857)
(5.42314 0.0154368 0.0267857)
(5.45611 0.0154368 0.0267857)
(5.48907 0.0154368 0.0267857)
(5.52204 0.0154368 0.0267857)
(5.555 0.0154368 0.0267857)
(5.58797 0.0154368 0.0267857)
(5.62093 0.0154368 0.0267857)
(5.6539 0.0154368 0.0267857)
(5.68686 0.0154368 0.0267857)
(5.71983 0.0154368 0.0267857)
(5.75279 0.0154368 0.0267857)
(5.78576 0.0154368 0.0267857)