/*--------------------------------*- C++ -*----------------------------------*\
| =========                 |                                                 |
| \\      /  F ield         | OpenFOAM: The Open Source CFD Toolbox           |
|  \\    /   O peration     | Version:  v2006                                 |
|   \\  /    A nd           | Website:  www.openfoam.com                      |
|    \\/     M anipulation  |                                                 |
\*---------------------------------------------------------------------------*/
FoamFile
{
    version     2.0;
    format      ascii;
    class       volScalarField;
    location    "10";
    object      mixingLength;
}
// * * * * * * * * * * * * * * * * * * * * * * * * * * * * * * * * * * * * * //

dimensions      [0 1 0 0 0 0 0];


internalField   nonuniform List<scalar> 
80000
(
0.000837798
0.000837765
0.00083772
0.000837679
0.000837663
0.000837671
0.000837716
0.000837794
0.000837897
0.00083802
0.000838147
0.00083827
0.000838352
0.000838368
0.000838306
0.000838101
0.000837753
0.00083722
0.000836437
0.000835408
0.000834268
0.000833259
0.000832501
0.000831915
0.00083164
0.000831636
0.000831943
0.000832591
0.000833587
0.00083492
0.000836597
0.00083863
0.000840955
0.00084362
0.000846625
0.000849918
0.000853509
0.000857408
0.000861594
0.000866084
0.000870881
0.000875965
0.000881266
0.000886891
0.000892783
0.000898839
0.000904841
0.000910885
0.000916772
0.00092268
0.000928437
0.000934189
0.000939868
0.000945485
0.000951065
0.000956583
0.000962032
0.000967411
0.000972782
0.000978071
0.00098334
0.000988526
0.000993676
0.000998797
0.00100384
0.00100885
0.0010138
0.00101878
0.00102362
0.00102862
0.00103364
0.00103879
0.00104406
0.00104941
0.00105485
0.00106037
0.00106598
0.00107165
0.0010774
0.00108323
0.00108911
0.00109504
0.00110102
0.00110704
0.00111308
0.00111916
0.00112524
0.00113134
0.00113742
0.00114349
0.00114951
0.00115551
0.00116137
0.00116709
0.00117264
0.00117803
0.00118324
0.0011883
0.00119318
0.00119788
0.00120239
0.00120672
0.00121087
0.00121481
0.00121857
0.00122212
0.00122547
0.00122862
0.00123155
0.00123428
0.00123678
0.00123907
0.00124114
0.00124298
0.0012446
0.00124599
0.00124715
0.00124808
0.00124877
0.00124923
0.00124945
0.00124943
0.00124937
0.00124936
0.00124936
0.00124936
0.00124936
0.00124936
0.00124936
0.00124936
0.00124936
0.00124936
0.00124936
0.00124936
0.00124936
0.00124936
0.00124936
0.00124936
0.00124936
0.00124936
0.00124936
0.00124936
0.00124936
0.00124936
0.00124936
0.00124936
0.00124936
0.00124936
0.00124936
0.00124936
0.00124936
0.00124936
0.00124936
0.00124936
0.00124936
0.00124936
0.00124936
0.00124936
0.00124936
0.00124936
0.00124936
0.00124936
0.00124936
0.00124936
0.00124936
0.00124936
0.00124936
0.00124936
0.00124936
0.00124936
0.00124936
0.00124936
0.00124936
0.00124936
0.00124936
0.00124936
0.00124936
0.00124936
0.00124936
0.00124936
0.00124936
0.00124936
0.00124936
0.00124936
0.00124936
0.00124936
0.00124936
0.00124936
0.00124936
0.00124936
0.00124936
0.00124936
0.00124936
0.00124936
0.00124936
0.00124936
0.00124936
0.00124936
0.00124936
0.00124936
0.00124936
0.00124936
0.00124936
0.00124936
0.00124936
0.00124936
0.00124936
0.00124936
0.00124936
0.00124936
0.00124936
0.00124936
0.00124936
0.00124936
0.00124936
0.00124936
0.00124936
0.00124936
0.00124936
0.00124936
0.00124936
0.00124936
0.00124936
0.00124936
0.00124936
0.00124936
0.00124936
0.00124936
0.00124936
0.00124936
0.00124936
0.00124936
0.00124936
0.00124936
0.00124936
0.00124936
0.00124936
0.00124936
0.00124936
0.00124936
0.00124936
0.00124936
0.00124936
0.00124936
0.00124936
0.00124936
0.00124936
0.00124936
0.00124936
0.00124936
0.00124936
0.00124936
0.00124936
0.00124936
0.00124936
0.00124936
0.00124936
0.00124936
0.00124936
0.00124936
0.00124936
0.00124936
0.00124936
0.00124936
0.00124936
0.00124936
0.00124936
0.00124936
0.00124936
0.00124936
0.00124936
0.00124936
0.00124936
0.00124936
0.00124936
0.00124936
0.00124936
0.00124937
0.00124943
0.00124945
0.00124923
0.00124877
0.00124808
0.00124715
0.00124599
0.0012446
0.00124298
0.00124114
0.00123907
0.00123678
0.00123427
0.00123156
0.00122863
0.00122545
0.00122213
0.00121858
0.00121479
0.00121088
0.00120674
0.00120237
0.00119788
0.00119319
0.00118832
0.0011832
0.00117805
0.00117264
0.00116705
0.00116139
0.00115554
0.00114945
0.00114351
0.00113745
0.00113136
0.00112518
0.0011192
0.00111313
0.00110698
0.00110103
0.00109508
0.00108902
0.00108325
0.00107745
0.0010717
0.00106586
0.00106042
0.00105488
0.00104938
0.00104402
0.00103885
0.00103369
0.00102851
0.00102365
0.00101884
0.00101369
0.0010089
0.00100388
0.000998826
0.000993573
0.000988576
0.000983381
0.00097803
0.00097277
0.000967456
0.000961962
0.000956575
0.000951102
0.000945538
0.000939761
0.00093423
0.000928482
0.000922709
0.00091667
0.000910934
0.000904907
0.00089879
0.000892759
0.000886937
0.000881209
0.000875944
0.00087093
0.00086615
0.000861471
0.000857445
0.00085355
0.000849959
0.000846511
0.000843682
0.000840996
0.000838606
0.00083656
0.000834953
0.00083355
0.000832587
0.000831968
0.000831664
0.000831574
0.000831939
0.000832517
0.000833255
0.000834256
0.000835416
0.000836425
0.000837224
0.000837761
0.000838101
0.000838302
0.000838372
0.000838352
0.000838265
0.000838151
0.00083802
0.000837897
0.000837794
0.000837716
0.000837671
0.000837663
0.000837679
0.00083772
0.000837765
0.000837798
0.00252714
0.00252704
0.00252691
0.00252679
0.00252673
0.0025268
0.00252704
0.00252751
0.00252828
0.00252938
0.00253087
0.00253282
0.00253526
0.00253826
0.00254185
0.0025461
0.00255104
0.00255673
0.0025632
0.00257049
0.00257863
0.00258759
0.00259733
0.00260777
0.00261888
0.00263061
0.00264289
0.00265571
0.00266899
0.0026827
0.0026968
0.00271124
0.00272601
0.00274105
0.00275634
0.00277184
0.00278752
0.00280337
0.00281934
0.00283541
0.00285155
0.00286773
0.00288392
0.0029001
0.00291624
0.0029323
0.00294827
0.00296415
0.00297995
0.00299565
0.00301128
0.00302683
0.0030423
0.00305771
0.00307304
0.00308831
0.00310352
0.00311867
0.00313377
0.00314882
0.00316383
0.00317879
0.00319371
0.00320859
0.00322345
0.00323828
0.00325309
0.00326788
0.00328265
0.00329741
0.00331214
0.00332684
0.00334149
0.00335609
0.00337061
0.00338505
0.0033994
0.00341364
0.00342776
0.00344174
0.00345559
0.00346927
0.00348277
0.00349609
0.00350921
0.00352212
0.00353479
0.00354723
0.0035594
0.00357129
0.0035829
0.0035942
0.00360517
0.00361582
0.00362614
0.00363613
0.00364578
0.00365509
0.00366406
0.00367268
0.00368095
0.00368886
0.00369643
0.00370364
0.00371048
0.00371696
0.00372307
0.00372882
0.0037342
0.0037392
0.00374382
0.00374807
0.00375193
0.00375542
0.00375852
0.00376123
0.00376356
0.0037655
0.00376705
0.0037682
0.00376897
0.00376932
0.00376942
0.0037694
0.00376938
0.00376935
0.00376933
0.00376931
0.00376929
0.00376927
0.00376925
0.00376923
0.00376922
0.0037692
0.00376918
0.00376916
0.00376914
0.00376912
0.00376911
0.00376909
0.00376907
0.00376906
0.00376904
0.00376902
0.00376901
0.00376899
0.00376898
0.00376896
0.00376895
0.00376893
0.00376892
0.00376891
0.00376889
0.00376888
0.00376887
0.00376886
0.00376884
0.00376883
0.00376882
0.00376881
0.0037688
0.00376879
0.00376877
0.00376877
0.00376875
0.00376874
0.00376874
0.00376872
0.00376872
0.00376871
0.0037687
0.00376869
0.00376868
0.00376867
0.00376867
0.00376866
0.00376865
0.00376865
0.00376864
0.00376864
0.00376863
0.00376863
0.00376862
0.00376862
0.00376861
0.00376861
0.00376861
0.0037686
0.0037686
0.00376859
0.00376859
0.00376859
0.00376858
0.00376858
0.00376858
0.00376858
0.00376858
0.00376858
0.00376858
0.00376858
0.00376858
0.00376858
0.00376858
0.00376858
0.00376858
0.00376858
0.00376858
0.00376858
0.00376859
0.00376859
0.00376859
0.0037686
0.0037686
0.00376861
0.00376861
0.00376861
0.00376862
0.00376862
0.00376863
0.00376863
0.00376864
0.00376864
0.00376865
0.00376865
0.00376866
0.00376867
0.00376867
0.00376868
0.00376869
0.0037687
0.00376871
0.00376872
0.00376872
0.00376874
0.00376874
0.00376875
0.00376877
0.00376877
0.00376879
0.0037688
0.00376881
0.00376882
0.00376883
0.00376884
0.00376886
0.00376887
0.00376888
0.00376889
0.00376891
0.00376892
0.00376893
0.00376895
0.00376896
0.00376898
0.00376899
0.00376901
0.00376902
0.00376904
0.00376906
0.00376907
0.00376909
0.00376911
0.00376912
0.00376914
0.00376916
0.00376918
0.0037692
0.00376922
0.00376923
0.00376925
0.00376927
0.00376929
0.00376931
0.00376933
0.00376935
0.00376938
0.0037694
0.00376942
0.00376932
0.00376897
0.0037682
0.00376705
0.0037655
0.00376356
0.00376123
0.00375852
0.00375542
0.00375193
0.00374807
0.00374382
0.0037392
0.0037342
0.00372882
0.00372307
0.00371696
0.00371048
0.00370364
0.00369643
0.00368887
0.00368095
0.00367267
0.00366406
0.00365509
0.00364578
0.00363613
0.00362614
0.00361582
0.00360517
0.0035942
0.0035829
0.00357129
0.0035594
0.00354723
0.00353479
0.00352212
0.00350922
0.00349609
0.00348277
0.00346927
0.00345558
0.00344174
0.00342776
0.00341364
0.0033994
0.00338505
0.00337061
0.00335609
0.00334149
0.00332684
0.00331214
0.0032974
0.00328265
0.00326788
0.00325309
0.00323828
0.00322345
0.0032086
0.00319371
0.00317878
0.00316383
0.00314882
0.00313377
0.00311867
0.00310352
0.0030883
0.00307304
0.00305771
0.0030423
0.00302682
0.00301128
0.00299566
0.00297994
0.00296415
0.00294827
0.0029323
0.00291624
0.0029001
0.00288392
0.00286772
0.00285155
0.00283541
0.00281934
0.00280337
0.00278752
0.00277184
0.00275633
0.00274105
0.00272601
0.00271125
0.0026968
0.0026827
0.00266898
0.0026557
0.00264289
0.00263061
0.00261888
0.00260777
0.00259733
0.0025876
0.00257863
0.00257049
0.0025632
0.00255673
0.00255104
0.0025461
0.00254185
0.00253826
0.00253526
0.00253282
0.00253087
0.00252938
0.00252828
0.00252751
0.00252704
0.0025268
0.00252673
0.00252679
0.00252691
0.00252704
0.00252714
0.00424416
0.00424399
0.00424379
0.00424358
0.0042435
0.00424358
0.00424399
0.00424481
0.00424608
0.00424793
0.00425047
0.00425375
0.00425785
0.00426293
0.004269
0.00427618
0.00428454
0.00429414
0.00430508
0.00431742
0.0043312
0.00434637
0.00436281
0.00438048
0.00439922
0.00441902
0.00443977
0.00446133
0.00448372
0.00450684
0.00453058
0.00455489
0.00457974
0.00460508
0.00463079
0.00465682
0.00468323
0.00470983
0.00473665
0.00476367
0.00479077
0.00481791
0.00484509
0.00487223
0.00489934
0.00492627
0.00495305
0.0049797
0.00500618
0.00503255
0.00505874
0.00508486
0.00511081
0.00513664
0.00516239
0.00518802
0.00521352
0.00523894
0.00526428
0.00528953
0.00531475
0.00533984
0.00536489
0.0053899
0.00541483
0.00543972
0.00546456
0.00548941
0.00551417
0.00553898
0.0055637
0.00558838
0.00561298
0.00563746
0.00566181
0.00568604
0.00571015
0.00573401
0.00575771
0.00578116
0.00580437
0.00582733
0.00585
0.00587231
0.00589432
0.00591597
0.00593721
0.00595808
0.00597846
0.00599842
0.00601786
0.0060368
0.00605517
0.00607304
0.00609034
0.00610707
0.00612323
0.00613885
0.00615389
0.00616833
0.00618218
0.00619547
0.00620814
0.00622023
0.00623171
0.00624258
0.00625283
0.00626242
0.00627144
0.00627985
0.0062876
0.00629469
0.00630117
0.00630703
0.00631224
0.00631679
0.00632068
0.00632392
0.0063265
0.00632847
0.00632974
0.00633036
0.00633048
0.00633044
0.00633044
0.0063304
0.00633036
0.00633032
0.00633028
0.00633024
0.00633024
0.00633019
0.00633015
0.00633011
0.00633007
0.00633007
0.00633003
0.00632999
0.00632999
0.00632995
0.00632991
0.00632991
0.00632987
0.00632983
0.00632983
0.00632979
0.00632974
0.00632974
0.0063297
0.0063297
0.00632966
0.00632962
0.00632962
0.00632958
0.00632958
0.00632954
0.00632954
0.0063295
0.0063295
0.00632946
0.00632946
0.00632942
0.00632942
0.00632942
0.00632937
0.00632937
0.00632933
0.00632933
0.00632933
0.00632929
0.00632929
0.00632929
0.00632925
0.00632925
0.00632925
0.00632921
0.00632921
0.00632921
0.00632921
0.00632917
0.00632917
0.00632917
0.00632917
0.00632917
0.00632913
0.00632913
0.00632913
0.00632913
0.00632913
0.00632913
0.00632909
0.00632909
0.00632909
0.00632909
0.00632909
0.00632909
0.00632909
0.00632909
0.00632909
0.00632909
0.00632909
0.00632909
0.00632909
0.00632909
0.00632909
0.00632909
0.00632909
0.00632909
0.00632909
0.00632909
0.00632913
0.00632913
0.00632913
0.00632913
0.00632913
0.00632913
0.00632917
0.00632917
0.00632917
0.00632917
0.00632917
0.00632921
0.00632921
0.00632921
0.00632921
0.00632925
0.00632925
0.00632925
0.00632929
0.00632929
0.00632929
0.00632933
0.00632933
0.00632933
0.00632937
0.00632937
0.00632942
0.00632942
0.00632942
0.00632946
0.00632946
0.0063295
0.0063295
0.00632954
0.00632954
0.00632958
0.00632958
0.00632962
0.00632962
0.00632966
0.0063297
0.0063297
0.00632974
0.00632974
0.00632979
0.00632983
0.00632983
0.00632987
0.00632991
0.00632991
0.00632995
0.00632999
0.00632999
0.00633003
0.00633007
0.00633007
0.00633011
0.00633015
0.00633019
0.00633024
0.00633024
0.00633028
0.00633032
0.00633036
0.0063304
0.00633044
0.00633044
0.00633048
0.00633036
0.00632974
0.00632847
0.0063265
0.00632392
0.00632068
0.00631679
0.00631224
0.00630703
0.00630117
0.00629469
0.0062876
0.00627985
0.00627144
0.00626246
0.00625283
0.00624258
0.00623171
0.00622023
0.00620814
0.00619547
0.00618218
0.00616833
0.00615389
0.00613885
0.00612323
0.00610707
0.00609034
0.00607304
0.00605517
0.0060368
0.00601786
0.00599838
0.00597846
0.00595808
0.00593721
0.00591597
0.00589432
0.00587235
0.00585
0.00582733
0.00580437
0.00578116
0.00575771
0.00573401
0.00571015
0.00568604
0.00566185
0.00563746
0.00561294
0.00558838
0.0055637
0.00553898
0.00551417
0.00548941
0.00546456
0.00543972
0.00541483
0.0053899
0.00536489
0.00533984
0.00531475
0.00528957
0.00526428
0.00523894
0.00521352
0.00518798
0.00516239
0.00513664
0.00511081
0.00508482
0.00505874
0.00503255
0.00500618
0.0049797
0.00495305
0.00492627
0.00489934
0.00487223
0.00484509
0.00481791
0.00479077
0.00476367
0.00473665
0.00470983
0.00468323
0.00465686
0.00463079
0.00460504
0.00457974
0.00455489
0.00453058
0.00450684
0.00448372
0.00446133
0.00443977
0.00441902
0.00439922
0.00438044
0.00436281
0.00434637
0.0043312
0.00431742
0.00430508
0.00429414
0.00428454
0.00427618
0.004269
0.00426293
0.00425785
0.00425375
0.00425047
0.00424793
0.00424608
0.00424481
0.00424399
0.00424358
0.0042435
0.00424358
0.00424379
0.00424399
0.00424416
0.00598932
0.00598912
0.00598879
0.0059885
0.00598838
0.00598854
0.00598912
0.00599022
0.00599203
0.00599465
0.00599826
0.00600289
0.00600871
0.00601585
0.00602446
0.00603459
0.00604643
0.00606005
0.00607554
0.00609301
0.00611248
0.00613397
0.00615726
0.00618223
0.00620875
0.00623671
0.00626607
0.00629657
0.00632823
0.00636086
0.00639444
0.0064288
0.0064639
0.00649961
0.00653593
0.00657275
0.00660998
0.00664753
0.00668542
0.00672351
0.00676176
0.0068001
0.00683843
0.00687672
0.0069149
0.0069529
0.0069907
0.00702826
0.00706565
0.0071028
0.00713978
0.0071766
0.00721321
0.00724966
0.00728595
0.00732211
0.00735811
0.00739398
0.00742973
0.00746536
0.00750091
0.00753633
0.00757167
0.00760693
0.00764211
0.00767721
0.00771231
0.00774732
0.00778229
0.00781727
0.00785216
0.00788696
0.00792165
0.00795621
0.00799061
0.00802481
0.00805875
0.00809246
0.00812587
0.00815896
0.00819168
0.00822407
0.00825601
0.00828749
0.00831853
0.00834903
0.00837901
0.0084084
0.00843718
0.00846531
0.00849274
0.00851943
0.00854534
0.00857052
0.00859491
0.00861853
0.00864132
0.00866334
0.0086845
0.00870487
0.00872443
0.00874317
0.00876104
0.00877806
0.00879425
0.00880955
0.00882402
0.00883759
0.0088503
0.00886211
0.00887301
0.00888306
0.0088922
0.00890044
0.00890778
0.00891418
0.00891967
0.00892427
0.00892795
0.00893066
0.00893246
0.00893333
0.00893353
0.00893349
0.00893345
0.00893341
0.00893337
0.00893328
0.00893324
0.0089332
0.00893316
0.00893312
0.00893308
0.00893304
0.008933
0.00893292
0.00893287
0.00893283
0.00893279
0.00893275
0.00893271
0.00893271
0.00893267
0.00893263
0.00893259
0.00893255
0.00893251
0.00893246
0.00893242
0.00893238
0.00893238
0.00893234
0.0089323
0.00893226
0.00893226
0.00893222
0.00893218
0.00893214
0.00893214
0.0089321
0.0089321
0.00893205
0.00893201
0.00893201
0.00893197
0.00893197
0.00893193
0.00893189
0.00893189
0.00893185
0.00893185
0.00893181
0.00893181
0.00893181
0.00893177
0.00893177
0.00893173
0.00893173
0.00893173
0.00893169
0.00893169
0.00893169
0.00893164
0.00893164
0.00893164
0.00893164
0.0089316
0.0089316
0.0089316
0.0089316
0.0089316
0.00893156
0.00893156
0.00893156
0.00893156
0.00893156
0.00893156
0.00893156
0.00893156
0.00893156
0.00893156
0.00893156
0.00893156
0.00893156
0.00893156
0.00893156
0.00893156
0.00893156
0.00893156
0.0089316
0.0089316
0.0089316
0.0089316
0.0089316
0.00893164
0.00893164
0.00893164
0.00893164
0.00893169
0.00893169
0.00893169
0.00893173
0.00893173
0.00893173
0.00893177
0.00893177
0.00893181
0.00893181
0.00893181
0.00893185
0.00893185
0.00893189
0.00893189
0.00893193
0.00893197
0.00893197
0.00893201
0.00893201
0.00893205
0.0089321
0.0089321
0.00893214
0.00893214
0.00893218
0.00893222
0.00893226
0.00893226
0.0089323
0.00893234
0.00893238
0.00893238
0.00893242
0.00893246
0.00893251
0.00893255
0.00893259
0.00893263
0.00893267
0.00893271
0.00893271
0.00893275
0.00893279
0.00893283
0.00893287
0.00893292
0.008933
0.00893304
0.00893308
0.00893312
0.00893316
0.0089332
0.00893324
0.00893328
0.00893337
0.00893341
0.00893345
0.00893349
0.00893353
0.00893333
0.00893246
0.00893066
0.00892795
0.00892427
0.00891967
0.00891418
0.00890778
0.00890044
0.0088922
0.00888306
0.00887306
0.00886211
0.0088503
0.00883759
0.00882402
0.00880955
0.00879425
0.00877806
0.00876104
0.00874317
0.00872443
0.00870487
0.0086845
0.00866334
0.00864132
0.00861853
0.00859491
0.00857052
0.00854534
0.00851943
0.0084927
0.00846527
0.00843718
0.0084084
0.00837901
0.00834903
0.00831853
0.00828749
0.00825601
0.00822407
0.00819168
0.00815892
0.00812583
0.00809246
0.00805875
0.00802477
0.00799061
0.00795621
0.00792165
0.00788696
0.00785216
0.00781727
0.00778229
0.00774732
0.00771231
0.00767721
0.00764211
0.00760693
0.00757167
0.00753633
0.00750091
0.00746536
0.00742973
0.00739398
0.00735811
0.00732211
0.00728595
0.00724966
0.00721321
0.0071766
0.00713978
0.00710284
0.00706565
0.00702826
0.0069907
0.0069529
0.0069149
0.00687672
0.00683843
0.00680005
0.00676176
0.00672351
0.00668542
0.00664753
0.00660998
0.00657275
0.00653593
0.00649961
0.0064639
0.0064288
0.00639444
0.00636086
0.00632823
0.00629657
0.00626607
0.00623676
0.00620875
0.00618218
0.00615726
0.00613397
0.00611248
0.00609301
0.00607554
0.00606005
0.00604643
0.00603463
0.00602446
0.00601585
0.00600871
0.00600289
0.00599822
0.00599465
0.00599203
0.00599022
0.00598912
0.00598854
0.00598838
0.0059885
0.00598879
0.00598912
0.00598932
0.0077631
0.00776282
0.00776241
0.00776204
0.00776187
0.00776208
0.00776282
0.00776429
0.00776663
0.00777003
0.00777467
0.00778069
0.00778824
0.00779754
0.0078087
0.00782186
0.00783723
0.0078549
0.00787499
0.00789771
0.007923
0.00795084
0.00798106
0.00801349
0.00804793
0.00808426
0.0081223
0.00816191
0.00820295
0.0082453
0.00828881
0.00833337
0.00837888
0.00842525
0.00847232
0.00852005
0.0085683
0.00861701
0.00866613
0.00871549
0.00876506
0.00881475
0.00886445
0.00891406
0.00896354
0.00901278
0.00906174
0.00911045
0.00915887
0.009207
0.00925493
0.00930261
0.00935009
0.00939732
0.00944435
0.00949121
0.00953787
0.00958436
0.00963069
0.00967686
0.0097229
0.00976878
0.00981458
0.00986029
0.00990589
0.0099514
0.00999687
0.0100423
0.0100876
0.0101329
0.0101781
0.0102232
0.0102682
0.010313
0.0103575
0.0104018
0.0104459
0.0104895
0.0105328
0.0105757
0.0106181
0.01066
0.0107015
0.0107423
0.0107825
0.010822
0.0108609
0.0108989
0.0109362
0.0109726
0.0110081
0.0110427
0.0110764
0.0111089
0.0111406
0.0111711
0.0112007
0.0112292
0.0112566
0.011283
0.0113083
0.0113326
0.0113558
0.0113778
0.0113988
0.0114186
0.0114374
0.0114549
0.0114714
0.0114867
0.0115009
0.0115139
0.0115257
0.0115364
0.0115459
0.0115542
0.0115613
0.0115672
0.011572
0.0115755
0.0115779
0.011579
0.0115793
0.0115792
0.0115791
0.0115791
0.011579
0.0115789
0.0115789
0.0115788
0.0115788
0.0115787
0.0115786
0.0115786
0.0115785
0.0115785
0.0115784
0.0115784
0.0115783
0.0115783
0.0115782
0.0115782
0.0115781
0.0115781
0.011578
0.0115779
0.0115779
0.0115779
0.0115778
0.0115778
0.0115777
0.0115777
0.0115777
0.0115776
0.0115776
0.0115775
0.0115775
0.0115775
0.0115774
0.0115774
0.0115774
0.0115773
0.0115773
0.0115773
0.0115772
0.0115772
0.0115772
0.0115771
0.0115771
0.0115771
0.011577
0.011577
0.011577
0.011577
0.011577
0.011577
0.0115769
0.0115769
0.0115769
0.0115769
0.0115768
0.0115768
0.0115768
0.0115768
0.0115768
0.0115768
0.0115768
0.0115768
0.0115768
0.0115767
0.0115767
0.0115767
0.0115767
0.0115767
0.0115767
0.0115767
0.0115767
0.0115767
0.0115767
0.0115767
0.0115767
0.0115767
0.0115767
0.0115767
0.0115767
0.0115767
0.0115767
0.0115767
0.0115767
0.0115767
0.0115767
0.0115768
0.0115768
0.0115768
0.0115768
0.0115768
0.0115768
0.0115768
0.0115768
0.0115768
0.0115769
0.0115769
0.0115769
0.0115769
0.011577
0.011577
0.011577
0.011577
0.011577
0.011577
0.0115771
0.0115771
0.0115771
0.0115772
0.0115772
0.0115772
0.0115773
0.0115773
0.0115773
0.0115774
0.0115774
0.0115774
0.0115775
0.0115775
0.0115775
0.0115776
0.0115776
0.0115777
0.0115777
0.0115777
0.0115778
0.0115778
0.0115779
0.0115779
0.0115779
0.011578
0.0115781
0.0115781
0.0115782
0.0115782
0.0115783
0.0115783
0.0115784
0.0115784
0.0115785
0.0115785
0.0115786
0.0115786
0.0115787
0.0115788
0.0115788
0.0115789
0.0115789
0.011579
0.0115791
0.0115791
0.0115792
0.0115793
0.011579
0.0115779
0.0115755
0.011572
0.0115672
0.0115613
0.0115542
0.0115459
0.0115364
0.0115257
0.0115139
0.0115009
0.0114867
0.0114714
0.0114549
0.0114374
0.0114186
0.0113988
0.0113778
0.0113557
0.0113326
0.0113083
0.011283
0.0112566
0.0112292
0.0112007
0.0111711
0.0111406
0.0111089
0.0110764
0.0110427
0.0110081
0.0109726
0.0109362
0.0108989
0.0108608
0.010822
0.0107825
0.0107423
0.0107015
0.01066
0.0106181
0.0105757
0.0105328
0.0104895
0.0104459
0.0104018
0.0103575
0.010313
0.0102682
0.0102232
0.0101781
0.0101329
0.0100876
0.0100423
0.00999687
0.0099514
0.00990589
0.00986029
0.00981458
0.00976878
0.0097229
0.00967686
0.00963065
0.00958436
0.00953787
0.00949117
0.00944435
0.00939732
0.00935005
0.00930261
0.00925493
0.00920704
0.00915887
0.00911045
0.00906174
0.00901278
0.00896354
0.00891406
0.00886441
0.00881471
0.00876506
0.00871549
0.00866613
0.00861701
0.0085683
0.00852005
0.00847232
0.00842525
0.00837892
0.00833341
0.00828881
0.0082453
0.00820295
0.00816191
0.0081223
0.00808426
0.00804793
0.00801349
0.00798106
0.00795084
0.007923
0.00789771
0.00787499
0.00785486
0.00783723
0.00782186
0.0078087
0.0077975
0.00778824
0.00778069
0.00777467
0.00777003
0.00776663
0.00776429
0.00776282
0.00776208
0.00776187
0.00776204
0.00776241
0.00776282
0.0077631
0.00956596
0.00956559
0.00956509
0.00956464
0.0095644
0.00956464
0.00956559
0.00956739
0.0095703
0.00957448
0.00958018
0.0095876
0.00959695
0.00960839
0.00962213
0.0096384
0.00965734
0.00967916
0.00970396
0.00973192
0.00976317
0.00979752
0.00983479
0.00987477
0.00991724
0.00996206
0.010009
0.0100578
0.0101084
0.0101606
0.0102142
0.0102692
0.0103253
0.0103824
0.0104404
0.0104992
0.0105587
0.0106188
0.0106793
0.0107401
0.0108012
0.0108624
0.0109236
0.0109848
0.0110457
0.0111064
0.0111667
0.0112267
0.0112864
0.0113457
0.0114048
0.0114635
0.011522
0.0115802
0.0116381
0.0116958
0.0117533
0.0118106
0.0118677
0.0119246
0.0119813
0.0120379
0.0120943
0.0121506
0.0122068
0.0122629
0.0123189
0.0123748
0.0124307
0.0124865
0.0125422
0.0125978
0.0126532
0.0127084
0.0127633
0.0128179
0.0128721
0.0129259
0.0129792
0.0130321
0.0130843
0.013136
0.013187
0.0132373
0.0132868
0.0133355
0.0133833
0.0134302
0.0134762
0.013521
0.0135648
0.0136074
0.0136488
0.013689
0.0137279
0.0137655
0.013802
0.0138371
0.0138709
0.0139034
0.0139346
0.0139645
0.013993
0.0140202
0.014046
0.0140705
0.0140935
0.0141152
0.0141354
0.0141543
0.0141718
0.0141878
0.0142024
0.0142155
0.0142272
0.0142375
0.0142462
0.0142535
0.0142594
0.0142637
0.0142666
0.014268
0.0142683
0.0142682
0.0142682
0.0142681
0.014268
0.014268
0.0142679
0.0142678
0.0142677
0.0142676
0.0142676
0.0142675
0.0142674
0.0142674
0.0142673
0.0142672
0.0142672
0.0142671
0.0142671
0.014267
0.0142669
0.0142669
0.0142668
0.0142667
0.0142667
0.0142666
0.0142666
0.0142665
0.0142665
0.0142664
0.0142664
0.0142663
0.0142663
0.0142662
0.0142662
0.0142661
0.0142661
0.014266
0.014266
0.0142659
0.0142659
0.0142659
0.0142658
0.0142658
0.0142657
0.0142657
0.0142657
0.0142657
0.0142656
0.0142656
0.0142656
0.0142655
0.0142655
0.0142655
0.0142655
0.0142654
0.0142654
0.0142654
0.0142654
0.0142653
0.0142653
0.0142653
0.0142653
0.0142653
0.0142653
0.0142653
0.0142653
0.0142652
0.0142652
0.0142652
0.0142652
0.0142652
0.0142652
0.0142652
0.0142652
0.0142652
0.0142652
0.0142652
0.0142652
0.0142652
0.0142652
0.0142652
0.0142652
0.0142652
0.0142652
0.0142652
0.0142652
0.0142652
0.0142652
0.0142653
0.0142653
0.0142653
0.0142653
0.0142653
0.0142653
0.0142653
0.0142653
0.0142654
0.0142654
0.0142654
0.0142654
0.0142655
0.0142655
0.0142655
0.0142655
0.0142656
0.0142656
0.0142656
0.0142657
0.0142657
0.0142657
0.0142657
0.0142658
0.0142658
0.0142659
0.0142659
0.0142659
0.014266
0.014266
0.0142661
0.0142661
0.0142662
0.0142662
0.0142663
0.0142663
0.0142664
0.0142664
0.0142665
0.0142665
0.0142666
0.0142666
0.0142667
0.0142667
0.0142668
0.0142669
0.0142669
0.014267
0.0142671
0.0142671
0.0142672
0.0142672
0.0142673
0.0142674
0.0142674
0.0142675
0.0142676
0.0142676
0.0142677
0.0142678
0.0142679
0.014268
0.014268
0.0142681
0.0142682
0.0142682
0.0142683
0.014268
0.0142666
0.0142637
0.0142594
0.0142535
0.0142462
0.0142375
0.0142272
0.0142155
0.0142024
0.0141878
0.0141718
0.0141543
0.0141354
0.0141152
0.0140935
0.0140705
0.014046
0.0140202
0.013993
0.0139645
0.0139346
0.0139034
0.0138709
0.0138371
0.013802
0.0137655
0.0137279
0.013689
0.0136488
0.0136074
0.0135648
0.013521
0.0134762
0.0134302
0.0133833
0.0133355
0.0132868
0.0132373
0.013187
0.013136
0.0130843
0.013032
0.0129792
0.0129259
0.0128721
0.0128178
0.0127633
0.0127084
0.0126532
0.0125978
0.0125422
0.0124865
0.0124307
0.0123748
0.0123189
0.0122629
0.0122068
0.0121506
0.0120943
0.0120378
0.0119813
0.0119246
0.0118677
0.0118106
0.0117533
0.0116958
0.0116381
0.0115802
0.0115219
0.0114635
0.0114048
0.0113457
0.0112864
0.0112267
0.0111667
0.0111064
0.0110457
0.0109848
0.0109236
0.0108624
0.0108012
0.0107401
0.0106793
0.0106188
0.0105587
0.0104993
0.0104404
0.0103824
0.0103253
0.0102692
0.0102142
0.0101606
0.0101084
0.0100578
0.010009
0.00996206
0.00991724
0.00987477
0.00983479
0.00979752
0.00976317
0.00973192
0.00970396
0.00967912
0.00965734
0.0096384
0.00962213
0.00960839
0.00959695
0.0095876
0.00958018
0.00957448
0.0095703
0.00956739
0.00956559
0.00956468
0.0095644
0.00956464
0.00956509
0.00956559
0.00956596
0.0113983
0.0113979
0.0113973
0.0113968
0.0113965
0.0113968
0.0113979
0.0114001
0.0114035
0.0114085
0.0114153
0.0114242
0.0114353
0.0114489
0.0114653
0.0114847
0.0115073
0.0115333
0.0115629
0.0115963
0.0116335
0.0116745
0.0117189
0.0117666
0.0118172
0.0118706
0.0119265
0.0119848
0.0120451
0.0121073
0.0121713
0.0122367
0.0123036
0.0123717
0.0124408
0.0125109
0.0125818
0.0126533
0.0127254
0.0127979
0.0128707
0.0129436
0.0130166
0.0130895
0.0131621
0.0132343
0.0133062
0.0133777
0.0134488
0.0135195
0.0135898
0.0136598
0.0137295
0.0137988
0.0138678
0.0139366
0.0140051
0.0140733
0.0141414
0.0142092
0.0142767
0.0143441
0.0144114
0.0144785
0.0145454
0.0146122
0.0146789
0.0147456
0.0148122
0.0148787
0.0149451
0.0150113
0.0150773
0.015143
0.0152085
0.0152735
0.0153381
0.0154021
0.0154657
0.0155287
0.0155909
0.0156525
0.0157132
0.0157732
0.0158321
0.0158902
0.0159472
0.016003
0.0160578
0.0161112
0.0161633
0.0162141
0.0162634
0.0163113
0.0163576
0.0164025
0.0164459
0.0164877
0.016528
0.0165667
0.0166039
0.0166395
0.0166735
0.0167059
0.0167366
0.0167657
0.0167932
0.016819
0.0168432
0.0168656
0.0168864
0.0169055
0.0169229
0.0169385
0.0169525
0.0169647
0.0169751
0.0169838
0.0169908
0.016996
0.0169995
0.0170011
0.0170015
0.0170014
0.0170013
0.0170012
0.0170011
0.017001
0.0170009
0.0170009
0.0170008
0.0170006
0.0170006
0.0170005
0.0170004
0.0170003
0.0170002
0.0170002
0.0170001
0.017
0.017
0.0169999
0.0169998
0.0169997
0.0169997
0.0169996
0.0169995
0.0169995
0.0169994
0.0169993
0.0169993
0.0169992
0.0169991
0.0169991
0.016999
0.016999
0.0169989
0.0169988
0.0169988
0.0169988
0.0169987
0.0169986
0.0169986
0.0169986
0.0169985
0.0169985
0.0169984
0.0169984
0.0169984
0.0169983
0.0169983
0.0169982
0.0169982
0.0169981
0.0169981
0.0169981
0.0169981
0.016998
0.016998
0.016998
0.0169979
0.0169979
0.0169979
0.0169979
0.0169979
0.0169979
0.0169978
0.0169978
0.0169978
0.0169978
0.0169978
0.0169977
0.0169977
0.0169977
0.0169977
0.0169977
0.0169977
0.0169977
0.0169977
0.0169977
0.0169977
0.0169977
0.0169977
0.0169977
0.0169977
0.0169977
0.0169977
0.0169977
0.0169977
0.0169978
0.0169978
0.0169978
0.0169978
0.0169978
0.0169979
0.0169979
0.0169979
0.0169979
0.0169979
0.0169979
0.016998
0.016998
0.016998
0.0169981
0.0169981
0.0169981
0.0169981
0.0169982
0.0169982
0.0169983
0.0169983
0.0169984
0.0169984
0.0169984
0.0169985
0.0169985
0.0169986
0.0169986
0.0169986
0.0169987
0.0169988
0.0169988
0.0169988
0.0169989
0.016999
0.016999
0.0169991
0.0169991
0.0169992
0.0169993
0.0169993
0.0169994
0.0169995
0.0169995
0.0169996
0.0169997
0.0169997
0.0169998
0.0169999
0.017
0.017
0.0170001
0.0170002
0.0170002
0.0170003
0.0170004
0.0170005
0.0170006
0.0170006
0.0170008
0.0170009
0.0170009
0.017001
0.0170011
0.0170012
0.0170013
0.0170014
0.0170015
0.0170011
0.0169995
0.016996
0.0169908
0.0169838
0.0169751
0.0169647
0.0169525
0.0169385
0.0169229
0.0169055
0.0168864
0.0168656
0.0168432
0.016819
0.0167932
0.0167657
0.0167366
0.0167059
0.0166735
0.0166395
0.0166039
0.0165667
0.016528
0.0164877
0.0164459
0.0164025
0.0163576
0.0163113
0.0162634
0.0162141
0.0161633
0.0161112
0.0160578
0.0160031
0.0159472
0.0158902
0.0158321
0.0157732
0.0157132
0.0156525
0.0155909
0.0155286
0.0154657
0.0154022
0.0153381
0.0152734
0.0152085
0.015143
0.0150773
0.0150113
0.0149451
0.0148787
0.0148122
0.0147456
0.0146789
0.0146122
0.0145454
0.0144785
0.0144114
0.0143441
0.0142767
0.0142092
0.0141414
0.0140733
0.0140051
0.0139366
0.0138678
0.0137988
0.0137294
0.0136598
0.0135898
0.0135195