/*--------------------------------*- C++ -*----------------------------------*\
| =========                 |                                                 |
| \\      /  F ield         | OpenFOAM: The Open Source CFD Toolbox           |
|  \\    /   O peration     | Version:  v2006                                 |
|   \\  /    A nd           | Website:  www.openfoam.com                      |
|    \\/     M anipulation  |                                                 |
\*---------------------------------------------------------------------------*/
FoamFile
{
    version     2.0;
    format      ascii;
    class       surfaceScalarField;
    location    "10";
    object      phi;
}
// * * * * * * * * * * * * * * * * * * * * * * * * * * * * * * * * * * * * * //

dimensions      [0 3 -1 0 0 0 0];
oriented        oriented;


internalField   nonuniform List<scalar> 
159400
(
1.85589e-06
1.38087e-08
1.85191e-06
4.05676e-09
1.85228e-06
-6.32266e-11
1.85537e-06
-3.82627e-09
1.8588e-06
-3.35639e-09
1.86092e-06
-2.65481e-09
1.86072e-06
6.81118e-10
1.85738e-06
3.46194e-09
1.84924e-06
9.3613e-09
1.83514e-06
1.55256e-08
1.81437e-06
2.31276e-08
1.78632e-06
3.09771e-08
1.74994e-06
3.99626e-08
1.70474e-06
4.9829e-08
1.65066e-06
5.88049e-08
1.58662e-06
6.99758e-08
1.51334e-06
7.91961e-08
1.43127e-06
8.85126e-08
1.33977e-06
9.79287e-08
1.23963e-06
1.06748e-07
1.13418e-06
1.11441e-07
1.02869e-06
1.10699e-07
9.26579e-07
1.05688e-07
8.28782e-07
1.0065e-07
7.36739e-07
9.3151e-08
6.50813e-07
8.61953e-08
5.71104e-07
7.8621e-08
4.97853e-07
7.13024e-08
4.30733e-07
6.4186e-08
3.69469e-07
5.76168e-08
3.13711e-07
5.1438e-08
2.63067e-07
4.5758e-08
2.17027e-07
4.07607e-08
1.75263e-07
3.60826e-08
1.37411e-07
3.19095e-08
1.03064e-07
2.81886e-08
7.18974e-08
2.48652e-08
4.36194e-08
2.18626e-08
1.79555e-08
1.92068e-08
-5.33902e-09
1.68e-08
-2.64788e-08
1.46779e-08
-4.56953e-08
1.27723e-08
-6.31914e-08
1.11552e-08
-7.91343e-08
9.64392e-09
-9.3737e-08
8.46455e-09
-1.07197e-07
7.40605e-09
-1.19669e-07
6.59861e-09
-1.31266e-07
5.79862e-09
-1.42097e-07
5.22015e-09
-1.52242e-07
4.59573e-09
-1.61769e-07
4.16067e-09
-1.70749e-07
3.67307e-09
-1.79239e-07
3.34959e-09
-1.87285e-07
2.97101e-09
-1.94932e-07
2.71078e-09
-2.02228e-07
2.44345e-09
-2.09172e-07
2.20346e-09
-2.1581e-07
1.97121e-09
-2.22178e-07
1.81657e-09
-2.28294e-07
1.62984e-09
-2.34186e-07
1.50843e-09
-2.39853e-07
1.35577e-09
-2.45324e-07
1.22948e-09
-2.5062e-07
1.15252e-09
-2.55735e-07
1.00939e-09
-2.6065e-07
9.11374e-10
-2.65416e-07
7.69281e-10
-2.69989e-07
7.17651e-10
-2.74285e-07
3.82042e-10
-2.78424e-07
3.75422e-10
-2.82418e-07
2.1906e-10
-2.863e-07
2.01039e-10
-2.90135e-07
2.14187e-10
-2.93895e-07
2.02647e-10
-2.97593e-07
2.11372e-10
-3.01237e-07
2.23055e-10
-3.0484e-07
2.52598e-10
-3.08392e-07
2.62751e-10
-3.11904e-07
2.90882e-10
-3.15401e-07
3.57798e-10
-3.1886e-07
3.74632e-10
-3.22288e-07
4.18346e-10
-3.25706e-07
4.81717e-10
-3.29083e-07
5.16129e-10
-3.32434e-07
5.57043e-10
-3.35787e-07
6.48261e-10
-3.39127e-07
6.93837e-10
-3.42455e-07
7.81908e-10
-3.45797e-07
8.57443e-10
-3.49157e-07
9.88927e-10
-3.52582e-07
1.10735e-09
-3.56146e-07
1.39087e-09
-3.598e-07
1.54037e-09
-3.63469e-07
1.66956e-09
-3.67137e-07
1.72914e-09
-3.70785e-07
1.82385e-09
-3.744e-07
1.8384e-09
-3.78009e-07
1.94967e-09
-3.81595e-07
1.9887e-09
-3.85146e-07
2.04228e-09
-3.88672e-07
2.10045e-09
-3.92163e-07
2.14426e-09
-3.95617e-07
2.19894e-09
-3.99033e-07
2.23559e-09
-4.02419e-07
2.29963e-09
-4.05754e-07
2.33001e-09
-4.09033e-07
2.35376e-09
-4.12247e-07
2.38578e-09
-4.15376e-07
2.37307e-09
-4.1843e-07
2.3965e-09
-4.21383e-07
2.3761e-09
-4.24226e-07
2.35547e-09
-4.2694e-07
2.3233e-09
-4.29503e-07
2.24543e-09
-4.31977e-07
2.26698e-09
-4.3431e-07
2.23126e-09
-4.36493e-07
2.13998e-09
-4.38642e-07
2.26935e-09
-4.40861e-07
2.39957e-09
-4.43243e-07
2.79117e-09
-4.46665e-07
3.82798e-09
-4.52439e-07
6.68739e-09
-4.57901e-07
6.65951e-09
-4.60532e-07
2.98347e-09
-4.61194e-07
1.31086e-09
-4.60934e-07
7.80177e-11
-4.59776e-07
-7.92763e-10
-4.57938e-07
-1.59546e-09
-4.55451e-07
-2.27586e-09
-4.52395e-07
-2.9157e-09
-4.488e-07
-3.5001e-09
-4.44706e-07
-4.05378e-09
-4.40135e-07
-4.57515e-09
-4.35111e-07
-5.07335e-09
-4.29657e-07
-5.54813e-09
-4.2379e-07
-6.00455e-09
-4.17526e-07
-6.44097e-09
-4.10882e-07
-6.86172e-09
-4.0387e-07
-7.26699e-09
-3.96506e-07
-7.65739e-09
-3.88802e-07
-8.03387e-09
-3.8077e-07
-8.39798e-09
-3.72424e-07
-8.74675e-09
-3.63773e-07
-9.08428e-09
-3.54832e-07
-9.40844e-09
-3.4561e-07
-9.72136e-09
-3.36116e-07
-1.00233e-08
-3.26362e-07
-1.03123e-08
-3.16359e-07
-1.05919e-08
-3.06118e-07
-1.08569e-08
-2.9565e-07
-1.11123e-08
-2.84962e-07
-1.13575e-08
-2.74067e-07
-1.15907e-08
-2.62974e-07
-1.18136e-08
-2.51691e-07
-1.20274e-08
-2.40231e-07
-1.22275e-08
-2.28602e-07
-1.24184e-08
-2.16814e-07
-1.2598e-08
-2.04877e-07
-1.27681e-08
-1.92798e-07
-1.2929e-08
-1.80589e-07
-1.30777e-08
-1.68258e-07
-1.32186e-08
-1.55816e-07
-1.33458e-08
-1.43271e-07
-1.34645e-08
-1.30632e-07
-1.35745e-08
-1.17907e-07
-1.36736e-08
-1.05108e-07
-1.37629e-08
-9.22387e-08
-1.38445e-08
-7.93127e-08
-1.39134e-08
-6.63373e-08
-1.3974e-08
-5.33212e-08
-1.40249e-08
-4.02718e-08
-1.40675e-08
-2.71963e-08
-1.41024e-08
-1.41052e-08
-1.41255e-08
-1.00378e-09
-1.41432e-08
1.20978e-08
-1.41495e-08
2.51935e-08
-1.41492e-08
3.82764e-08
-1.41412e-08
5.13404e-08
-1.41266e-08
6.43782e-08
-1.41039e-08
7.73838e-08
-1.40745e-08
9.03488e-08
-1.40362e-08
1.03267e-07
-1.39908e-08
1.16132e-07
-1.39384e-08
1.28939e-07
-1.388e-08
1.41682e-07
-1.38162e-08
1.54352e-07
-1.37428e-08
1.66948e-07
-1.36658e-08
1.7946e-07
-1.35798e-08
1.91883e-07
-1.34886e-08
2.04212e-07
-1.33912e-08
2.16444e-07
-1.32892e-08
2.28572e-07
-1.31817e-08
2.40592e-07
-1.30681e-08
2.52498e-07
-1.29489e-08
2.64285e-07
-1.28241e-08
2.75949e-07
-1.26944e-08
2.87487e-07
-1.25608e-08
2.98895e-07
-1.24239e-08
3.10166e-07
-1.22792e-08
3.21298e-07
-1.21315e-08
3.32288e-07
-1.19812e-08
3.43129e-07
-1.18236e-08
3.53821e-07
-1.16633e-08
3.6436e-07
-1.15001e-08
3.74741e-07
-1.13334e-08
3.84962e-07
-1.11628e-08
3.95019e-07
-1.09884e-08
4.0491e-07
-1.08104e-08
4.14631e-07
-1.06294e-08
4.24181e-07
-1.04463e-08
4.33557e-07
-1.02603e-08
4.42758e-07
-1.00722e-08
4.51779e-07
-9.87927e-09
4.60619e-07
-9.68613e-09
4.69276e-07
-9.48846e-09
4.77746e-07
-9.28932e-09
4.86029e-07
-9.08888e-09
4.94123e-07
-8.88627e-09
5.02027e-07
-8.6819e-09
5.09739e-07
-8.47467e-09
5.17255e-07
-8.26618e-09
5.24576e-07
-8.0558e-09
5.31702e-07
-7.84453e-09
5.38628e-07
-7.63172e-09
5.45356e-07
-7.41824e-09
5.51882e-07
-7.20166e-09
5.58207e-07
-6.98538e-09
5.64328e-07
-6.76669e-09
5.70246e-07
-6.54746e-09
5.75959e-07
-6.32782e-09
5.81469e-07
-6.10698e-09
5.86771e-07
-5.88569e-09
5.91866e-07
-5.66231e-09
5.96755e-07
-5.43898e-09
6.01435e-07
-5.21489e-09
6.05905e-07
-4.98965e-09
6.10166e-07
-4.76426e-09
6.14218e-07
-4.53874e-09
6.18057e-07
-4.31128e-09
6.21684e-07
-4.08402e-09
6.25101e-07
-3.85556e-09
6.28305e-07
-3.62677e-09
6.31298e-07
-3.39765e-09
6.34076e-07
-3.16759e-09
6.36639e-07
-2.93716e-09
6.38987e-07
-2.70523e-09
6.41119e-07
-2.47282e-09
6.43034e-07
-2.23958e-09
6.4473e-07
-2.00508e-09
6.46207e-07
-1.76953e-09
6.47466e-07
-1.53268e-09
6.48503e-07
-1.2937e-09
6.49314e-07
-1.05286e-09
6.499e-07
-8.09431e-10
6.50258e-07
-5.62766e-10
6.5038e-07
-3.12113e-10
6.50264e-07
-5.56158e-11
6.49908e-07
2.05487e-10
6.49308e-07
4.68614e-10
6.48459e-07
7.34285e-10
6.4736e-07
1.00259e-09
6.4601e-07
1.27373e-09
6.44404e-07
1.54874e-09
6.42538e-07
1.82813e-09
6.4041e-07
2.11346e-09
6.38007e-07
2.40486e-09
6.35325e-07
2.70818e-09
6.32349e-07
3.01919e-09
6.29071e-07
3.35693e-09
6.25452e-07
3.70093e-09
6.2149e-07
4.1119e-09
6.17086e-07
4.51757e-09
6.12252e-07
5.11587e-09
6.06681e-07
5.66474e-09
6.00441e-07
6.85577e-09
5.92161e-07
8.21019e-09
5.80677e-07
1.27392e-08
5.70014e-07
1.13551e-08
5.64573e-07
5.47457e-09
5.62201e-07
2.51022e-09
5.61623e-07
3.9718e-10
5.6262e-07
-1.18066e-09
5.64961e-07
-2.71069e-09
5.68372e-07
-3.82445e-09
5.7282e-07
-4.91013e-09
5.78355e-07
-6.18509e-09
5.84712e-07
-6.9724e-09
5.91883e-07
-7.95111e-09
5.99951e-07
-8.87209e-09
6.08915e-07
-9.91379e-09
6.18499e-07
-1.06251e-08
6.28823e-07
-1.13465e-08
6.40179e-07
-1.26925e-08
6.52016e-07
-1.31365e-08
6.64536e-07
-1.38977e-08
6.78139e-07
-1.53107e-08
6.92151e-07
-1.56844e-08
7.06847e-07
-1.64706e-08
7.22564e-07
-1.78957e-08
7.38923e-07
-1.83927e-08
7.55764e-07
-1.93914e-08
7.73454e-07
-1.99705e-08
7.9227e-07
-2.19088e-08
8.1152e-07
-2.20045e-08
8.31526e-07
-2.33294e-08
8.52856e-07
-2.4766e-08
8.74616e-07
-2.56908e-08
8.97467e-07
-2.65256e-08
9.22223e-07
-2.96609e-08
9.47857e-07
-3.00129e-08
9.74124e-07
-3.17261e-08
1.00157e-06
-3.25498e-08
1.03047e-06
-3.5162e-08
1.0597e-06
-3.53055e-08
1.0893e-06
-3.61966e-08
1.12062e-06
-3.83972e-08
1.15211e-06
-3.92023e-08
1.18392e-06
-3.91237e-08
1.21716e-06
-4.22308e-08
1.25069e-06
-4.16578e-08
1.284e-06
-4.30564e-08
1.31794e-06
-4.27466e-08
1.35327e-06
-4.61398e-08
1.3882e-06
-4.48918e-08
1.4227e-06
-4.55617e-08
1.45817e-06
-4.65803e-08
1.49393e-06
-4.76417e-08
1.52892e-06
-4.69752e-08
1.56323e-06
-4.66836e-08
1.59864e-06
-4.80433e-08
1.63221e-06
-4.74251e-08
1.6635e-06
-4.3179e-08
1.69543e-06
-4.69777e-08
1.72583e-06
-4.29908e-08
1.75439e-06
-4.36073e-08
1.78284e-06
-4.1726e-08
1.81204e-06
-4.48395e-08
1.83993e-06
-4.23985e-08
1.86647e-06
-4.19314e-08
1.89435e-06
-4.35059e-08
1.92167e-06
-4.3783e-08
1.9484e-06
-4.25357e-08
1.97599e-06
-4.53253e-08
2.00379e-06
-4.44713e-08
2.03056e-06
-4.55585e-08
2.058e-06
-4.44852e-08
2.0874e-06
-5.00339e-08
2.11682e-06
-4.75422e-08
2.14582e-06
-5.07271e-08
2.17612e-06
-4.9499e-08
2.20941e-06
-5.6827e-08
2.24295e-06
-5.4932e-08
2.27745e-06
-5.87558e-08
2.31688e-06
-6.34254e-08
2.36021e-06
-7.02321e-08
2.40734e-06
-7.32768e-08
2.45908e-06
-8.16585e-08
2.51402e-06
-8.36672e-08
2.56951e-06
-8.77939e-08
2.62736e-06
-8.79356e-08
2.68953e-06
-9.74684e-08
2.75241e-06
-9.50451e-08
2.8146e-06
-9.86192e-08
2.87851e-06
-9.7395e-08
2.94539e-06
-1.04997e-07
3.01142e-06
-1.00997e-07
3.07592e-06
-1.02033e-07
3.14195e-06
-1.01703e-07
3.20728e-06
-1.03126e-07
3.26982e-06
-9.73038e-08
3.33054e-06
-9.71989e-08
3.38807e-06
-9.08998e-08
3.43874e-06
-8.43105e-08
3.48247e-06
-7.32339e-08
3.51991e-06
-6.70627e-08
3.54547e-06
-5.06697e-08
3.55628e-06
-3.31523e-08
3.55412e-06
-1.63305e-08
3.53218e-06
6.82907e-09
3.48342e-06
4.02219e-08
3.41058e-06
6.78302e-08
3.31936e-06
9.11925e-08
3.21664e-06
1.05162e-07
3.1072e-06
1.14241e-07
2.99313e-06
1.20852e-07
2.87771e-06
1.23054e-07
2.76309e-06
1.23286e-07
2.65154e-06
1.20312e-07
2.54414e-06
1.16272e-07
2.44201e-06
1.10983e-07
2.34598e-06
1.04146e-07
2.25682e-06
9.74089e-08
2.17564e-06
8.79959e-08
2.1024e-06
8.02067e-08
2.0371e-06
7.07454e-08
1.98028e-06
6.23849e-08
1.93294e-06
5.11769e-08
1.89498e-06
4.16561e-08
2.87294e-08
5.69017e-06
5.51885e-08
5.67378e-06
1.98404e-08
5.67101e-06
3.19685e-09
5.67666e-06
-9.86269e-09
5.68384e-06
-9.83543e-09
5.68761e-06
-6.84361e-09
5.68479e-06
3.84065e-09
5.67278e-06
1.46406e-08
5.64684e-06
3.48495e-08
5.60351e-06
5.74291e-08
5.5406e-06
8.44779e-08
5.45617e-06
1.13222e-07
5.34723e-06
1.46082e-07
5.21225e-06
1.81966e-07
5.0509e-06
2.1624e-07
4.86027e-06
2.57077e-07
4.64209e-06
2.93094e-07
4.39763e-06
3.28969e-07
4.12535e-06
3.66005e-07
3.82767e-06
4.00777e-07
3.51386e-06
4.22038e-07
3.19856e-06
4.24057e-07
2.8918e-06
4.11013e-07
2.59693e-06
3.95854e-07
2.31827e-06
3.72626e-07
2.05723e-06
3.49499e-07
1.81431e-06
3.24431e-07
1.59034e-06
2.99176e-07
1.38451e-06
2.74522e-07
1.19613e-06
2.51159e-07
1.02423e-06
2.28979e-07
8.67706e-07
2.08282e-07
7.25133e-07
1.89697e-07
5.95522e-07
1.72259e-07
4.77809e-07
1.5637e-07
3.70818e-07
1.42035e-07
2.73567e-07
1.29045e-07
1.85185e-07
1.17176e-07
1.04851e-07
1.06478e-07
3.18232e-08
9.66967e-08
-3.45449e-08
8.78713e-08
-9.49469e-08
7.9866e-08
-1.50005e-07
7.28467e-08
-2.00226e-07
6.63053e-08
-2.46226e-07
6.08203e-08
-2.88604e-07
5.59185e-08
-3.27851e-07
5.18982e-08
-3.64333e-07
4.81076e-08
-3.98396e-07
4.50449e-08
-4.3029e-07
4.20359e-08
-4.60244e-07
3.96003e-08
-4.8847e-07
3.71854e-08
-5.1515e-07
3.52557e-08
-5.4043e-07
3.33024e-08
-5.64448e-07
3.17043e-08
-5.8735e-07
3.01831e-08
-6.09156e-07
2.87644e-08
-6.29996e-07
2.74476e-08
-6.49981e-07
2.63645e-08
-6.69167e-07
2.52605e-08
-6.87639e-07
2.43574e-08
-7.0541e-07
2.34133e-08
-7.22556e-07
2.2569e-08
-7.39143e-07
2.18822e-08
-7.55164e-07
2.10624e-08
-7.70573e-07
2.03424e-08
-7.85498e-07
1.95661e-08
-7.99838e-07
1.89863e-08
-8.13389e-07
1.76904e-08
-8.26444e-07
1.72225e-08
-8.39047e-07
1.64955e-08
-8.51297e-07
1.6085e-08
-8.63361e-07
1.58406e-08
-8.75187e-07
1.55201e-08
-8.86804e-07
1.52601e-08
-8.98237e-07
1.50128e-08
-9.09525e-07
1.48324e-08
-9.20647e-07
1.46201e-08
-9.31631e-07
1.44291e-08
-9.42539e-07
1.43602e-08
-9.53327e-07
1.4181e-08
-9.64007e-07
1.40458e-08
-9.74629e-07
1.39808e-08
-9.85131e-07
1.38289e-08
-9.9554e-07
1.36899e-08
-1.00593e-06
1.37026e-08
-1.01627e-06
1.3607e-08
-1.02657e-06
1.35974e-08
-1.03689e-06
1.35871e-08
-1.04725e-06
1.37133e-08
-1.05778e-06
1.38579e-08
-1.06865e-06
1.44569e-08
-1.07976e-06
1.47057e-08
-1.09091e-06
1.48232e-08
-1.10205e-06
1.47525e-08
-1.11312e-06
1.47428e-08
-1.12408e-06
1.45242e-08
-1.135e-06
1.45595e-08
-1.14585e-06
1.44151e-08
-1.15658e-06
1.42858e-08
-1.16721e-06
1.41726e-08
-1.17773e-06
1.40124e-08
-1.18814e-06
1.38707e-08
-1.19841e-06
1.36899e-08
-1.20857e-06
1.35704e-08
-1.21856e-06
1.33499e-08
-1.22837e-06
1.30997e-08
-1.23797e-06
1.28569e-08
-1.24731e-06
1.24785e-08
-1.25639e-06
1.21787e-08
-1.26516e-06
1.17505e-08
-1.27358e-06
1.12945e-08
-1.2816e-06
1.07862e-08
-1.28916e-06
1.01475e-08
-1.29642e-06
9.77731e-09
-1.30325e-06
9.23426e-09
-1.30964e-06
8.56605e-09
-1.31591e-06
8.53077e-09
-1.32237e-06
8.65472e-09
-1.32935e-06
9.57714e-09
-1.339e-06
1.28456e-08
-1.35427e-06
2.13011e-08
-1.36847e-06
2.04917e-08
-1.37548e-06
9.01751e-09
-1.37713e-06
2.69311e-09
-1.37592e-06
-1.62566e-09
-1.37205e-06
-4.9571e-09
-1.3661e-06
-7.86255e-09
-1.35821e-06
-1.04037e-08
-1.3486e-06
-1.2745e-08
-1.33736e-06
-1.49043e-08
-1.32461e-06
-1.69349e-08
-1.31043e-06
-1.88516e-08
-1.2949e-06
-2.06776e-08
-1.27806e-06
-2.24176e-08
-1.25998e-06
-2.40878e-08
-1.24071e-06
-2.56832e-08
-1.22029e-06
-2.72197e-08
-1.19877e-06
-2.86984e-08
-1.17619e-06
-3.01211e-08
-1.15259e-06
-3.14918e-08
-1.12801e-06
-3.28162e-08
-1.10247e-06
-3.40829e-08
-1.07603e-06
-3.53076e-08
-1.04871e-06
-3.64826e-08
-1.02055e-06
-3.76154e-08
-9.91569e-07
-3.87072e-08
-9.61814e-07
-3.97508e-08
-9.31308e-07
-4.07591e-08
-9.00091e-07
-4.17134e-08
-8.6819e-07
-4.26314e-08
-8.35634e-07
-4.35118e-08
-8.02455e-07
-4.43477e-08
-7.68683e-07
-4.5145e-08
-7.34343e-07
-4.59086e-08
-6.99471e-07
-4.66215e-08
-6.64095e-07
-4.73002e-08
-6.28245e-07
-4.79368e-08
-5.91946e-07
-4.85385e-08
-5.55226e-07
-4.91063e-08
-5.18117e-07
-4.96282e-08
-4.8064e-07
-5.01223e-08
-4.42835e-07
-5.05651e-08
-4.04723e-07
-5.09764e-08
-3.6633e-07
-5.13558e-08
-3.27684e-07
-5.16952e-08
-2.88813e-07
-5.19981e-08
-2.49739e-07
-5.22728e-08
-2.10495e-07
-5.25008e-08
-1.71106e-07
-5.26981e-08
-1.31597e-07
-5.28597e-08
-9.19911e-08
-5.29907e-08
-5.23097e-08
-5.30935e-08
-1.25848e-08
-5.31532e-08
2.71686e-08
-5.31928e-08
6.69196e-08
-5.31905e-08
1.06651e-07
-5.31646e-08
1.4634e-07
-5.31101e-08
1.8597e-07
-5.30315e-08
2.25518e-07
-5.29233e-08
2.64966e-07
-5.27903e-08
3.0429e-07
-5.26247e-08
3.4347e-07
-5.24334e-08
3.82487e-07
-5.22162e-08
4.21326e-07
-5.19774e-08
4.59971e-07
-5.17188e-08
4.98396e-07
-5.14245e-08
5.3659e-07
-5.11178e-08
5.74531e-07
-5.07777e-08
6.12204e-07
-5.04185e-08
6.4959e-07
-5.00373e-08
6.86679e-07
-4.96389e-08
7.23454e-07
-4.92205e-08
7.59901e-07
-4.87798e-08
7.96002e-07
-4.83185e-08
8.31744e-07
-4.78371e-08
8.67113e-07
-4.73378e-08
9.02098e-07
-4.68243e-08
9.36691e-07
-4.62985e-08
9.70868e-07
-4.57442e-08
1.00462e-06
-4.51794e-08
1.03795e-06
-4.46046e-08
1.07083e-06
-4.40036e-08
1.10325e-06
-4.33925e-08
1.1352e-06
-4.2771e-08
1.16669e-06
-4.21366e-08
1.19768e-06
-4.14879e-08
1.22819e-06
-4.08259e-08
1.25819e-06
-4.01502e-08
1.28767e-06
-3.94638e-08
1.31664e-06
-3.87698e-08
1.34508e-06
-3.80648e-08
1.37299e-06
-3.73525e-08
1.40035e-06
-3.66228e-08
1.42717e-06
-3.5892e-08
1.45343e-06
-3.51447e-08
1.47913e-06
-3.43922e-08
1.50426e-06
-3.36348e-08
1.52882e-06
-3.28695e-08
1.5528e-06
-3.20977e-08
1.5762e-06
-3.13155e-08
1.59901e-06
-3.05287e-08
1.62123e-06
-2.97349e-08
1.64285e-06
-2.8938e-08
1.66388e-06
-2.81353e-08
1.6843e-06
-2.73301e-08
1.70411e-06
-2.65136e-08
1.72332e-06
-2.56981e-08
1.74191e-06
-2.48737e-08
1.75987e-06
-2.40475e-08
1.77723e-06
-2.32195e-08
1.79396e-06
-2.23872e-08
1.81006e-06
-2.15531e-08
1.82554e-06
-2.07112e-08
1.84039e-06
-1.98695e-08
1.85461e-06
-1.9025e-08
1.86819e-06
-1.81761e-08
1.88114e-06
-1.73266e-08
1.89345e-06
-1.64764e-08
1.90513e-06
-1.5619e-08
1.91616e-06
-1.47623e-08
1.92655e-06
-1.3901e-08
1.93629e-06
-1.30385e-08
1.94539e-06
-1.21745e-08
1.95384e-06
-1.13069e-08
1.96164e-06
-1.04377e-08
1.96879e-06
-9.56286e-09
1.97528e-06
-8.68614e-09
1.98112e-06
-7.80607e-09
1.98629e-06
-6.92125e-09
1.9908e-06
-6.03228e-09
1.99464e-06
-5.13819e-09
1.99781e-06
-4.23614e-09
2.0003e-06
-3.32698e-09
2.0021e-06
-2.408e-09
2.0032e-06
-1.4771e-09
2.0036e-06
-5.31274e-10
2.00327e-06
4.35005e-10
2.00221e-06
1.41837e-09
2.00041e-06
2.41046e-09
1.99786e-06
3.41246e-09
1.99456e-06
4.42486e-09
1.99049e-06
5.44859e-09
1.98564e-06
6.48686e-09
1.98e-06
7.54312e-09
1.97356e-06
8.62023e-09
1.96629e-06
9.72404e-09
1.95817e-06
1.08669e-08
1.94916e-06
1.2051e-08
1.93922e-06
1.33148e-08
1.92825e-06
1.46422e-08
1.91621e-06
1.61496e-08
1.90284e-06
1.77708e-08
1.88813e-06
1.98701e-08
1.87124e-06
2.22229e-08
1.85218e-06
2.61453e-08
1.82766e-06
3.17669e-08
1.79533e-06
4.52435e-08
1.76518e-06
4.11301e-08
1.74875e-06
2.14927e-08
1.74105e-06
1.0372e-08
1.73889e-06
2.58117e-09
1.74151e-06
-3.55176e-09
1.74821e-06
-9.20532e-09
1.75823e-06
-1.35439e-08
1.77144e-06
-1.77154e-08
1.78788e-06
-2.2295e-08
1.8069e-06
-2.54619e-08
1.82844e-06
-2.90228e-08
1.85268e-06
-3.24939e-08
1.87958e-06
-3.61953e-08
1.90848e-06
-3.885e-08
1.93967e-06
-4.16481e-08
1.9738e-06
-4.60843e-08
2.00957e-06
-4.79078e-08
2.04747e-06
-5.06955e-08
2.08842e-06
-5.52371e-08
2.1308e-06
-5.67656e-08
2.17532e-06
-5.95495e-08
2.22275e-06
-6.39854e-08
2.27216e-06
-6.59549e-08
2.32321e-06
-6.88945e-08
2.37679e-06
-7.12801e-08
2.43356e-06
-7.6924e-08
2.49186e-06
-7.76792e-08
2.55252e-06
-8.16646e-08
2.61689e-06
-8.62748e-08
2.68287e-06
-8.88994e-08
2.75218e-06
-9.21828e-08
2.82674e-06
-1.01232e-07
2.90398e-06
-1.02859e-07
2.98336e-06
-1.07436e-07
3.0662e-06
-1.10426e-07
3.15303e-06
-1.17627e-07
3.24108e-06
-1.1791e-07
3.33058e-06
-1.20245e-07
3.42462e-06
-1.26548e-07
3.51943e-06
-1.2801e-07
3.61546e-06
-1.27915e-07
3.71527e-06
-1.35798e-07
3.81599e-06
-1.3413e-07
3.91643e-06
-1.36504e-07
4.01875e-06
-1.35945e-07
4.12456e-06
-1.44271e-07
4.22949e-06
-1.40037e-07
4.33352e-06
-1.40596e-07
4.43998e-06
-1.43015e-07
4.54709e-06
-1.44758e-07
4.65218e-06
-1.41348e-07
4.75556e-06
-1.39187e-07
4.86125e-06
-1.42287e-07
4.96188e-06
-1.3725e-07
5.05658e-06
-1.24675e-07
5.15239e-06
-1.32515e-07
5.24385e-06
-1.20441e-07
5.33045e-06
-1.19059e-07
5.41661e-06
-1.1375e-07
5.50429e-06
-1.20452e-07
5.58843e-06
-1.12182e-07
5.66922e-06
-1.09246e-07
5.75318e-06
-1.13145e-07
5.83563e-06
-1.11986e-07
5.91671e-06
-1.07953e-07
5.99997e-06
-1.14151e-07
6.08369e-06
-1.11348e-07
6.165e-06
-1.11824e-07
6.24835e-06
-1.09571e-07
6.33678e-06
-1.23067e-07
6.42548e-06
-1.16348e-07
6.51356e-06
-1.22329e-07
6.60564e-06
-1.20353e-07
6.70574e-06
-1.39261e-07
6.8072e-06
-1.33996e-07
6.91236e-06
-1.43725e-07
7.03135e-06
-1.59079e-07
7.16163e-06
-1.78107e-07
7.30315e-06
-1.8872e-07
7.45774e-06
-2.11824e-07
7.62141e-06
-2.18711e-07
7.78756e-06
-2.27556e-07
7.96091e-06
-2.30021e-07
8.14593e-06
-2.55076e-07
8.33322e-06
-2.4889e-07
8.51936e-06
-2.5551e-07
8.71051e-06
-2.53967e-07
8.90938e-06
-2.73492e-07
9.10603e-06
-2.62342e-07
9.29894e-06
-2.63158e-07
9.49549e-06
-2.63531e-07
9.68958e-06
-2.65411e-07
9.87583e-06
-2.48964e-07
1.00562e-05
-2.46858e-07
1.02265e-05
-2.28552e-07
1.03771e-05
-2.06074e-07
1.05071e-05
-1.73577e-07
1.06174e-05
-1.52434e-07
1.06928e-05
-1.01251e-07
1.07255e-05
-4.52475e-08
1.07188e-05
8.4735e-09
1.0654e-05
8.49605e-08
1.0513e-05
1.9227e-07
1.0303e-05
2.83167e-07
1.00393e-05
3.57973e-07
9.74092e-06
4.03093e-07
9.42129e-06
4.31569e-07
9.08706e-06
4.51451e-07
8.74766e-06
4.57326e-07
8.40958e-06
4.55918e-07
8.07948e-06
4.44342e-07
7.76074e-06
4.28853e-07
7.45689e-06
4.08942e-07
7.17049e-06
3.84371e-07
6.90398e-06
3.58864e-07
6.66058e-06
3.25767e-07
6.44046e-06
2.96233e-07
6.24387e-06
2.62665e-07
6.07244e-06
2.30802e-07
5.92905e-06
1.91042e-07
5.81373e-06
1.54937e-07
1.08363e-07
9.71226e-06
1.31026e-07
9.67903e-06
5.26052e-08
9.66934e-06
1.3489e-08
9.67419e-06
-1.52154e-08
9.68223e-06
-1.71512e-08
9.68526e-06
-1.03551e-08
9.67781e-06
1.18439e-08
9.65527e-06
3.65536e-08
9.61e-06
8.01923e-08
9.53626e-06
1.30434e-07
9.43024e-06
1.89925e-07
9.28862e-06
2.53865e-07
9.10652e-06
3.26784e-07
8.88134e-06
4.05996e-07
8.61226e-06
4.83109e-07
8.29476e-06
5.72899e-07
7.93132e-06
6.53974e-07
7.52387e-06
7.34032e-07
7.07025e-06
8.16668e-07
6.57447e-06
8.93763e-07
6.0511e-06
9.42307e-07
5.52335e-06
9.49137e-07
5.00787e-06
9.23351e-07
4.51084e-06
8.90698e-07
4.03962e-06
8.41226e-07
3.59694e-06
7.90346e-07
3.18394e-06
7.35499e-07
2.80215e-06
6.79522e-07
2.45048e-06
6.24852e-07
2.12791e-06
5.72656e-07
1.83298e-06
5.23011e-07
1.56391e-06
4.76605e-07
1.31844e-06
4.34623e-07
1.09493e-06
3.95329e-07
8.91622e-07
3.59374e-07
7.066e-07
3.26846e-07
5.3821e-07
2.9733e-07
3.84995e-07
2.70344e-07
2.45582e-07
2.4594e-07
1.18718e-07
2.23643e-07
3.30974e-09
2.03447e-07
-1.01807e-07
1.8515e-07
-1.97693e-07
1.68999e-07
-2.85205e-07
1.5404e-07
-3.65358e-07
1.41291e-07
-4.39168e-07
1.29989e-07
-5.07499e-07
1.20586e-07
-5.70996e-07
1.11879e-07
-6.30268e-07
1.04692e-07
-6.85761e-07
9.78185e-08
-7.37873e-07
9.20958e-08
-7.86973e-07
8.65795e-08
-8.33371e-07
8.20237e-08
-8.77329e-07
7.7573e-08
-9.19083e-07
7.38135e-08
-9.5888e-07
7.03121e-08
-9.96781e-07
6.70178e-08
-1.033e-06
6.39919e-08
-1.06772e-06
6.14269e-08
-1.10104e-06
5.8914e-08
-1.13312e-06
5.67687e-08
-1.16397e-06
5.46008e-08
-1.19374e-06
5.26571e-08
-1.22252e-06
5.0997e-08
-1.25032e-06
4.91655e-08
-1.27708e-06
4.74519e-08
-1.30297e-06
4.57249e-08
-1.32788e-06
4.42783e-08
-1.3515e-06
4.15689e-08
-1.37426e-06
4.03415e-08
-1.39623e-06
3.87605e-08
-1.41758e-06
3.77553e-08
-1.43856e-06
3.71321e-08
-1.45911e-06
3.63725e-08
-1.47928e-06
3.57337e-08
-1.49911e-06
3.51339e-08
-1.51866e-06
3.46732e-08
-1.53791e-06
3.41659e-08
-1.5569e-06
3.36938e-08
-1.57573e-06
3.34706e-08
-1.59434e-06
3.3056e-08
-1.61274e-06
3.2716e-08
-1.63102e-06
3.25177e-08
-1.64907e-06
3.21531e-08
-1.66696e-06
3.18078e-08
-1.68478e-06
3.17787e-08
-1.7025e-06
3.15502e-08
-1.72013e-06
3.14672e-08
-1.73777e-06
3.14311e-08
-1.75546e-06
3.1634e-08
-1.77339e-06
3.19531e-08
-1.79183e-06
3.3103e-08
-1.8106e-06
3.36329e-08
-1.82944e-06
3.38422e-08
-1.84824e-06
3.36861e-08
-1.86692e-06
3.35902e-08
-1.88542e-06
3.31363e-08
-1.90382e-06
3.3106e-08
-1.92207e-06
3.27731e-08
-1.94012e-06
3.24423e-08
-1.95799e-06
3.21506e-08
-1.97566e-06
3.1757e-08
-1.9931e-06
3.1408e-08
-2.01031e-06
3.09636e-08
-2.0273e-06
3.06343e-08
-2.04401e-06
3.01074e-08
-2.06038e-06
2.95077e-08
-2.07637e-06
2.89083e-08
-2.09192e-06
2.80376e-08
-2.10701e-06
2.72951e-08
-2.12155e-06
2.6301e-08
-2.13548e-06
2.52308e-08
-2.14873e-06
2.40393e-08
-2.16121e-06
2.26045e-08
-2.17312e-06
2.16707e-08
-2.1843e-06
2.04075e-08
-2.19477e-06
1.89639e-08
-2.20499e-06
1.87489e-08
-2.2155e-06
1.90417e-08
-2.2269e-06
2.09853e-08
-2.24224e-06
2.78669e-08
-2.2655e-06
4.43645e-08
-2.2868e-06
4.19669e-08
-2.29739e-06
1.90463e-08
-2.29959e-06
5.05887e-09
-2.29695e-06
-4.41961e-09
-2.28987e-06
-1.19868e-08
-2.27928e-06
-1.84684e-08
-2.26543e-06
-2.42056e-08
-2.24867e-06
-2.94543e-08
-2.22919e-06
-3.43135e-08
-2.20717e-06
-3.88713e-08
-2.18274e-06
-4.31783e-08
-2.15602e-06
-4.72777e-08
-2.12713e-06
-5.11851e-08
-2.09614e-06
-5.4934e-08
-2.06315e-06
-5.85151e-08
-2.02824e-06
-6.19629e-08
-1.99148e-06
-6.52808e-08
-1.95294e-06
-6.84726e-08
-1.91268e-06
-7.15472e-08
-1.87076e-06
-7.45176e-08
-1.82727e-06
-7.73583e-08
-1.78224e-06
-8.01041e-08
-1.73574e-06
-8.27382e-08
-1.68783e-06
-8.52774e-08
-1.63855e-06
-8.77244e-08
-1.58797e-06
-9.00626e-08
-1.53613e-06
-9.23217e-08
-1.48309e-06
-9.44595e-08
-1.42892e-06
-9.65152e-08
-1.37364e-06
-9.84866e-08
-1.31732e-06
-1.00358e-07
-1.26001e-06
-1.02143e-07
-1.20175e-06
-1.03851e-07
-1.1426e-06
-1.05446e-07
-1.0826e-06
-1.06964e-07
-1.02181e-06
-1.08388e-07
-9.60272e-07
-1.09732e-07
-8.98029e-07
-1.11001e-07
-8.35136e-07
-1.12167e-07
-7.71631e-07
-1.1327e-07
-7.07577e-07
-1.14258e-07
-6.43013e-07
-1.15175e-07
-5.77979e-07
-1.1602e-07
-5.12525e-07
-1.16776e-07
-4.46699e-07
-1.1745e-07
-3.80533e-07
-1.1806e-07
-3.14087e-07
-1.18565e-07
-2.47401e-07
-1.19002e-07
-1.80518e-07
-1.19358e-07
-1.13476e-07
-1.19646e-07
-4.63122e-08
-1.1987e-07
2.09209e-08
-1.19998e-07
8.81978e-08
-1.2008e-07
1.55467e-07
-1.20069e-07
2.22698e-07
-1.20006e-07
2.89856e-07
-1.19877e-07
3.5691e-07
-1.19695e-07
4.23822e-07
-1.19446e-07
4.90563e-07
-1.19141e-07
5.5709e-07
-1.18763e-07
6.23373e-07
-1.18328e-07
6.89378e-07
-1.17834e-07
7.5508e-07
-1.17292e-07
8.20453e-07
-1.16706e-07
8.85449e-07
-1.1604e-07
9.50056e-07
-1.15345e-07
1.01423e-06
-1.14576e-07
1.07796e-06
-1.13763e-07
1.14119e-06
-1.12902e-07
1.20393e-06
-1.12001e-07
1.26613e-06
-1.11056e-07
1.32778e-06
-1.10061e-07
1.38884e-06
-1.0902e-07
1.4493e-06
-1.07933e-07
1.50912e-06
-1.06806e-07
1.5683e-06
-1.05647e-07
1.62681e-06
-1.04461e-07
1.68462e-06
-1.0321e-07
1.74172e-06
-1.01936e-07
1.79809e-06
-1.0064e-07
1.8537e-06
-9.92842e-08
1.90854e-06
-9.79063e-08
1.9626e-06
-9.65048e-08
2.01586e-06
-9.50741e-08
2.0683e-06
-9.36115e-08
2.1199e-06
-9.2119e-08
2.17065e-06
-9.05956e-08
2.22054e-06
-8.90481e-08
2.26955e-06
-8.74833e-08
2.31767e-06
-8.58942e-08
2.36489e-06
-8.42883e-08
2.41119e-06
-8.26434e-08
2.45657e-06
-8.09958e-08
2.50101e-06
-7.9311e-08
2.54449e-06
-7.76147e-08
2.58702e-06
-7.59072e-08
2.62859e-06
-7.41821e-08
2.66918e-06
-7.24422e-08
2.70879e-06
-7.06787e-08
2.7474e-06
-6.89049e-08
2.78501e-06
-6.71153e-08
2.82162e-06
-6.53184e-08
2.85721e-06
-6.35087e-08
2.89179e-06
-6.1693e-08
2.92533e-06
-5.98519e-08
2.95785e-06
-5.80132e-08
2.98932e-06
-5.61541e-08
3.01976e-06
-5.42909e-08
3.04914e-06
-5.24237e-08
3.07748e-06
-5.05466e-08
3.10477e-06
-4.86652e-08
3.13099e-06
-4.67665e-08
3.15614e-06
-4.4868e-08
3.18024e-06
-4.29629e-08
3.20325e-06
-4.1048e-08
3.2252e-06
-3.91316e-08
3.24607e-06
-3.72134e-08
3.26586e-06
-3.5279e-08
3.28456e-06
-3.33459e-08
3.30218e-06
-3.14024e-08
3.31871e-06
-2.9456e-08
3.33414e-06
-2.7506e-08
3.34848e-06
-2.5548e-08
3.36172e-06
-2.3586e-08
3.37386e-06
-2.16114e-08
3.38488e-06
-1.96323e-08
3.39479e-06
-1.76455e-08
3.40358e-06
-1.56478e-08
3.41125e-06
-1.36406e-08
3.41778e-06
-1.16217e-08
3.42316e-06
-9.58466e-09
3.42742e-06
-7.53163e-09
3.43051e-06
-5.45632e-09
3.43242e-06
-3.35448e-09
3.43311e-06
-1.21945e-09
3.43259e-06
9.59629e-10
3.43084e-06
3.1767e-09
3.42783e-06
5.41511e-09
3.42355e-06
7.67643e-09
3.41801e-06
9.96188e-09
3.41117e-06
1.22737e-08
3.403e-06
1.46187e-08
3.39349e-06
1.70057e-08
3.38262e-06
1.94391e-08
3.37035e-06
2.19364e-08
3.35665e-06
2.45179e-08
3.34142e-06
2.7203e-08
3.32461e-06
3.00523e-08
3.30606e-06
3.30797e-08
3.2857e-06
3.64558e-08
3.26308e-06
4.02005e-08
3.23813e-06
4.48219e-08
3.20958e-06
5.03699e-08
3.17728e-06
5.87357e-08
3.13652e-06
7.15152e-08
3.08454e-06
9.75712e-08
3.03589e-06
8.94691e-08
3.0082e-06
4.87365e-08
2.99461e-06
2.40826e-08
2.99042e-06
6.67488e-09
2.99431e-06
-7.31472e-09
3.00512e-06
-1.99499e-08
3.02163e-06
-2.99155e-08
3.04356e-06
-3.94265e-08
3.07094e-06
-4.95405e-08
3.10274e-06
-5.69464e-08
3.13887e-06
-6.49405e-08
3.17954e-06
-7.28191e-08
3.22469e-06
-8.10357e-08
3.27333e-06
-8.71723e-08
3.32589e-06
-9.36875e-08
3.38326e-06
-1.03162e-07
3.44356e-06
-1.07706e-07
3.50754e-06
-1.14107e-07
3.57645e-06
-1.23747e-07
3.648e-06
-1.27705e-07
3.7232e-06
-1.34077e-07
3.80313e-06
-1.43492e-07
3.88648e-06
-1.48398e-07
3.97278e-06
-1.54773e-07
4.06335e-06
-1.60711e-07
4.15905e-06
-1.72254e-07
4.25758e-06
-1.75017e-07
4.3602e-06
-1.83582e-07
4.46877e-06
-1.93769e-07
4.5804e-06
-1.99789e-07
4.69768e-06
-2.07908e-07
4.82325e-06
-2.26314e-07
4.9534e-06
-2.31195e-07
5.08738e-06
-2.40714e-07
5.22709e-06
-2.48261e-07
5.37312e-06
-2.62767e-07
5.52144e-06
-2.64475e-07
5.6725e-06
-2.69859e-07
5.8306e-06
-2.8304e-07
5.99021e-06
-2.86284e-07
6.15213e-06
-2.87442e-07
6.31988e-06
-3.02682e-07
6.48919e-06
-3.00695e-07
6.65843e-06
-3.0484e-07
6.83078e-06
-3.05292e-07
7.00831e-06
-3.20903e-07
7.18463e-06
-3.13509e-07
7.3599e-06
-3.14268e-07
7.53878e-06
-3.19494e-07
7.71841e-06
-3.2241e-07
7.89494e-06
-3.15489e-07
8.06896e-06
-3.10978e-07
8.24581e-06
-3.1666e-07
8.41461e-06
-3.04671e-07
8.5745e-06
-2.805e-07
8.73534e-06
-2.93102e-07
8.88917e-06
-2.70066e-07
9.03563e-06
-2.64782e-07
9.18123e-06
-2.55521e-07
9.32862e-06
-2.66726e-07
9.47045e-06
-2.50695e-07
9.60744e-06
-2.44059e-07
9.74891e-06
-2.51933e-07
9.88798e-06
-2.48973e-07
1.00252e-05
-2.41736e-07
1.01656e-05
-2.53015e-07
1.03067e-05
-2.4849e-07
1.04444e-05
-2.48132e-07
1.05856e-05
-2.46101e-07
1.07345e-05
-2.71244e-07
1.08841e-05
-2.60653e-07
1.10334e-05
-2.70814e-07
1.11895e-05
-2.70786e-07
1.13581e-05
-3.06926e-07
1.15296e-05
-2.9999e-07
1.17083e-05
-3.20178e-07
1.19092e-05
-3.54988e-07
1.21285e-05
-3.94728e-07
1.23665e-05
-4.20829e-07
1.26254e-05
-4.67978e-07
1.2899e-05
-4.859e-07
1.31776e-05
-5.0328e-07
1.34683e-05
-5.13164e-07
1.37772e-05
-5.6184e-07
1.40898e-05
-5.53436e-07
1.44016e-05
-5.64661e-07
1.47215e-05
-5.65678e-07
1.5053e-05
-6.02263e-07
1.53811e-05
-5.82575e-07
1.57037e-05
-5.82137e-07
1.60314e-05
-5.84219e-07
1.63544e-05
-5.84783e-07
1.66648e-05
-5.52159e-07
1.69649e-05
-5.43466e-07
1.72474e-05
-5.04716e-07
1.74977e-05
-4.53313e-07
1.77141e-05
-3.84061e-07
1.78963e-05
-3.32583e-07
1.80211e-05
-2.21794e-07
1.8076e-05
-9.78857e-08
1.80644e-05
2.22435e-08
1.79574e-05