/*--------------------------------*- C++ -*----------------------------------*\
| =========                 |                                                 |
| \\      /  F ield         | OpenFOAM: The Open Source CFD Toolbox           |
|  \\    /   O peration     | Version:  v2006                                 |
|   \\  /    A nd           | Website:  www.openfoam.com                      |
|    \\/     M anipulation  |                                                 |
\*---------------------------------------------------------------------------*/
FoamFile
{
    version     2.0;
    format      ascii;
    class       volScalarField;
    location    "10";
    object      Pr;
}
// * * * * * * * * * * * * * * * * * * * * * * * * * * * * * * * * * * * * * //

dimensions      [0 2 -3 0 0 0 0];


internalField   nonuniform List<scalar> 
80000
(
0.09158
0.0908478
0.0905966
0.0907324
0.0910109
0.0912202
0.0912514
0.091007
0.0904208
0.0892624
0.0875631
0.0851925
0.0822171
0.0784673
0.0741211
0.0691245
0.0635129
0.0575309
0.0512023
0.0446301
0.0380282
0.0317466
0.0261236
0.0211834
0.0169371
0.0133806
0.0104189
0.00800914
0.00606538
0.00452233
0.00330869
0.00237074
0.00165383
0.00111503
0.000719745
0.000436954
0.00024221
0.000115797
4.15847e-05
6.72872e-06
9.42929e-07
1.60542e-05
4.57678e-05
8.51126e-05
0.000130394
0.000179102
0.000229613
0.000280641
0.000331408
0.000381347
0.000429947
0.000477076
0.000522368
0.000566051
0.000607684
0.000647713
0.000685878
0.000722167
0.000756763
0.000789789
0.000821182
0.000851254
0.000879659
0.00090693
0.000932827
0.000957488
0.000980454
0.00100262
0.00102273
0.00104062
0.00105752
0.0010724
0.00108654
0.0010996
0.00111171
0.00112288
0.00113323
0.0011429
0.00115168
0.00115991
0.00116763
0.00117465
0.00118125
0.00118748
0.00119304
0.00119837
0.00120348
0.00120834
0.00121303
0.00121786
0.00122274
0.0012284
0.0012352
0.00124251
0.00125021
0.00125825
0.00126646
0.00127486
0.00128377
0.00129275
0.00130211
0.00131169
0.00132157
0.00133169
0.00134211
0.0013529
0.00136381
0.00137502
0.0013863
0.00139767
0.0014092
0.00142058
0.00143203
0.00144314
0.00145409
0.0014654
0.00147606
0.00148707
0.00149884
0.00151246
0.00152835
0.00155625
0.00159863
0.00162493
0.00163178
0.00163321
0.00162664
0.00161544
0.0015992
0.00157902
0.00155501
0.00152766
0.00149721
0.00146395
0.00142812
0.00138996
0.00134969
0.00130755
0.00126374
0.00121846
0.00117192
0.00112431
0.00107583
0.00102668
0.000977034
0.000927093
0.000877019
0.00082699
0.000777186
0.000727772
0.000678912
0.000630767
0.000583486
0.000537221
0.00049211
0.000448295
0.00040591
0.000365082
0.00032593
0.000288562
0.000253093
0.000219619
0.00018824
0.000159043
0.000132107
0.000107507
8.53112e-05
6.55781e-05
4.83622e-05
3.37112e-05
2.16637e-05
1.22518e-05
5.50048e-06
1.42939e-06
5.08517e-08
1.37071e-06
5.38847e-06
1.2098e-05
2.14878e-05
3.3541e-05
4.8235e-05
6.55415e-05
8.54259e-05
0.00010785
0.000132771
0.000160143
0.000189915
0.000222026
0.000256418
0.000293027
0.000331781
0.000372613
0.00041545
0.000460215
0.000506828
0.000555201
0.000605253
0.000656898
0.000710052
0.000764621
0.000820509
0.000877633
0.000935886
0.000995181
0.00105542
0.00111652
0.00117837
0.00124087
0.00130394
0.00136747
0.00143137
0.00149555
0.00155991
0.00162436
0.0016888
0.00175315
0.0018173
0.00188117
0.00194468
0.00200774
0.00207025
0.00213215
0.00219333
0.00225374
0.00231328
0.0023719
0.00242949
0.002486
0.00254136
0.00259548
0.00264831
0.00269981
0.00274987
0.00279847
0.00284553
0.00289101
0.00293483
0.00297696
0.00301736
0.00305596
0.00309272
0.00312761
0.00316058
0.00319159
0.00322061
0.00324759
0.0032725
0.00329532
0.00331601
0.00333453
0.00335086
0.00336498
0.00337685
0.00338643
0.0033937
0.00339864
0.00340118
0.00340128
0.00339891
0.00339402
0.00338659
0.00337662
0.00336409
0.00334897
0.00333124
0.00331089
0.00328788
0.00326212
0.00323365
0.00320217
0.00316788
0.00312998
0.00308921
0.00304314
0.0029944
0.00293514
0.00287389
0.00278312
0.00267015
0.00260308
0.00257366
0.00256242
0.0025685
0.00258849
0.0026219
0.00266512
0.00272163
0.00278918
0.00286665
0.00295597
0.00305747
0.00317194
0.00329534
0.00343536
0.00359065
0.00375454
0.00393983
0.00414264
0.00435609
0.00459597
0.00485508
0.00513569
0.0054358
0.00576946
0.0061321
0.00651594
0.00694337
0.00740991
0.0079024
0.00846199
0.00907387
0.00972828
0.0104369
0.0112127
0.0120566
0.0129332
0.0138944
0.0149412
0.0160145
0.017197
0.0184529
0.0197704
0.0211495
0.0226423
0.0242316
0.0258387
0.0275622
0.0293785
0.0312649
0.0331813
0.0351853
0.0373237
0.0393207
0.0414655
0.0436672
0.0458308
0.0480639
0.0504056
0.0528756
0.0552639
0.0578318
0.0605559
0.0632632
0.0661736
0.069212
0.072381
0.0755822
0.0791589
0.082891
0.0867846
0.0908511
0.0953634
0.100267
0.105272
0.110942
0.117321
0.124209
0.131881
0.140192
0.149025
0.158099
0.168145
0.178692
0.189419
0.200478
0.212244
0.224452
0.23635
0.24864
0.261194
0.273334
0.285095
0.296536
0.306874
0.315665
0.323195
0.32903
0.331601
0.331651
0.328849
0.321344
0.309383
0.294383
0.277341
0.259814
0.241933
0.224367
0.207469
0.191482
0.176687
0.16298
0.150596
0.139348
0.129423
0.120706
0.113125
0.106603
0.101175
0.0968669
0.0935202
0.276625
0.273745
0.272382
0.272169
0.272419
0.272557
0.272251
0.271199
0.269192
0.265663
0.260634
0.253772
0.245206
0.234547
0.222179
0.207999
0.192101
0.175058
0.15698
0.138154
0.119133
0.100804
0.0840846
0.0691602
0.0561214
0.0450113
0.0356182
0.0278443
0.0214719
0.016326
0.0122103
0.00896924
0.00644424
0.00450517
0.00304526
0.00196799
0.00119498
0.00066215
0.000316296
0.000114293
2.11143e-05
8.52977e-06
5.41384e-05
0.000140278
0.000253305
0.000383342
0.000523872
0.000669737
0.000817876
0.000965689
0.00111141
0.00125403
0.00139225
0.00152633
0.00165501
0.00177911
0.00189804
0.0020118
0.0021205
0.00222463
0.00232394
0.00241924
0.00250981
0.0025967
0.00267959
0.0027587
0.00283318
0.00290435
0.00297049
0.00303006
0.00308603
0.0031361
0.00318286
0.00322588
0.00326541
0.00330166
0.00333479
0.0033652
0.00339261
0.00341759
0.00344047
0.00346088
0.00347936
0.00349616
0.00351083
0.00352412
0.00353629
0.00354735
0.00355761
0.00356776
0.00357796
0.00358955
0.00360368
0.00361916
0.00363584
0.00365345
0.00367172
0.0036906
0.00371073
0.00373133
0.00375296
0.00377533
0.00379861
0.00382269
0.00384764
0.00387364
0.00390014
0.00392747
0.00395521
0.00398326
0.00401176
0.00404011
0.00406856
0.00409645
0.00412404
0.00415228
0.00417952
0.00420786
0.00423832
0.00427399
0.00431646
0.00438134
0.00446911
0.00452478
0.0045409
0.0045396
0.00451729
0.00448134
0.00443155
0.00437058
0.00429896
0.00421803
0.00412846
0.00403114
0.00392674
0.00381594
0.00369943
0.00357781
0.00345173
0.00332175
0.00318845
0.00305242
0.00291422
0.00277438
0.00263347
0.002492
0.00235048
0.00220942
0.0020693
0.0019306
0.00179382
0.00165938
0.00152772
0.00139927
0.00127444
0.0011536
0.00103714
0.000925435
0.000818808
0.00071757
0.000622031
0.000532474
0.00044917
0.00037237
0.000302285
0.00023913
0.000183086
0.000134321
9.29763e-05
5.9187e-05
3.3052e-05
1.46564e-05
4.06537e-06
1.32606e-06
6.46583e-06
1.94939e-05
4.04009e-05
6.91621e-05
0.000105737
0.000150071
0.000202089
0.000261705
0.000328811
0.000403291
0.000485011
0.000573842
0.000669615
0.000772157
0.000881298
0.00099684
0.00111857
0.0012463
0.0013798
0.00151885
0.0016632
0.00181261
0.00196684
0.00212562
0.0022887
0.00245584
0.00262672
0.00280111
0.00297873
0.00315925
0.00334243
0.00352802
0.0037157
0.0039052
0.00409624
0.00428851
0.00448175
0.0046757
0.00487007
0.00506459
0.00525899
0.00545297
0.00564627
0.00583864
0.00602985
0.00621964
0.00640771
0.00659387
0.00677785
0.0069594
0.00713834
0.00731444
0.00748744
0.00765717
0.00782339
0.0079859
0.00814453
0.00829908
0.00844938
0.00859524
0.00873649
0.00887295
0.00900451
0.00913096
0.00925224
0.00936812
0.00947851
0.0095833
0.0096823
0.00977546
0.00986262
0.00994373
0.0100187
0.0100874
0.0101496
0.0102053
0.0102546
0.0102974
0.010333
0.0103621
0.0103844
0.0103995
0.0104075
0.010408
0.0104015
0.0103872
0.0103654
0.0103359
0.0102991
0.0102542
0.0102016
0.010141
0.0100725
0.0099959
0.00991092
0.009817
0.00971438
0.00960122
0.00947872
0.00934132
0.00919394
0.0090189
0.00883221
0.00858598
0.00829862
0.00811163
0.00801745
0.00797956
0.00799384
0.00805091
0.00814864
0.00827899
0.00844842
0.00865208
0.00888805
0.00916034
0.00946973
0.00981842
0.0101993
0.0106282
0.0111025
0.0116116
0.0121812
0.012804
0.0134695
0.0142099
0.0150115
0.0158828
0.0168213
0.0178584
0.0189845
0.0201921
0.0215264
0.0229822
0.0245407
0.0262895
0.0281934
0.0302458
0.0324678
0.0348928
0.037515
0.0402771
0.0432855
0.0465357
0.0499169
0.0536096
0.0575152
0.0616368
0.0659647
0.07062
0.0755327
0.0805768
0.0859446
0.0915738
0.0974098
0.103384
0.109605
0.11613
0.122405
0.129087
0.135875
0.142685
0.149704
0.157054
0.16471
0.172313
0.180422
0.188942
0.197552
0.206765
0.216351
0.226393
0.236685
0.248042
0.259851
0.27232
0.285414
0.299874
0.315403
0.331668
0.349873
0.370119
0.391944
0.416032
0.441812
0.469137
0.49731
0.528054
0.559835
0.592297
0.625538
0.66048
0.696018
0.730824
0.766185
0.801639
0.835446
0.867789
0.898276
0.925151
0.947276
0.965171
0.977372
0.980674
0.976523
0.96394
0.939132
0.903213
0.859564
0.810848
0.760741
0.709856
0.659911
0.61183
0.566281
0.523966
0.484716
0.44909
0.41669
0.387947
0.362593
0.340472
0.321398
0.305446
0.292682
0.282763
0.46489
0.459054
0.45583
0.454509
0.454022
0.453479
0.45233
0.450057
0.44628
0.440212
0.431788
0.420529
0.406539
0.389334
0.369352
0.346505
0.320958
0.293468
0.264284
0.233899
0.203165
0.173369
0.145874
0.121092
0.0992315
0.0804039
0.0643414
0.0509042
0.0397791
0.0306949
0.0233479
0.017488
0.0128605
0.00925111
0.00648155
0.00439053
0.00284492
0.00173471
0.000967985
0.000469524
0.000177721
4.25531e-05
2.35189e-05
8.87097e-05
0.000212972
0.00037723
0.000568307
0.000775966
0.000993665
0.00121601
0.00143924
0.00166101
0.00187855
0.00209163
0.00229815
0.00249858
0.00269197
0.0028783
0.00305728
0.00322952
0.00339464
0.0035535
0.00370544
0.00385144
0.00399126
0.00412508
0.00425213
0.00437317
0.00448718
0.00459184
0.00469024
0.00478009
0.004864
0.00494173
0.00501367
0.00508022
0.00514155
0.0051981
0.00524981
0.00529726
0.00534091
0.00538051
0.00541667
0.00544973
0.00547941
0.0055065
0.00553142
0.00555435
0.00557582
0.00559669
0.00561743
0.00563952
0.00566432
0.00569087
0.00571897
0.00574822
0.00577845
0.00580949
0.00584203
0.00587524
0.00590976
0.00594531
0.00598199
0.00601979
0.00605873
0.00609888
0.00613977
0.00618155
0.00622385
0.00626641
0.00630926
0.00635169
0.00639389
0.00643524
0.00647578
0.00651654
0.00655619
0.00659703
0.00664056
0.00669115
0.00675096
0.00683108
0.00692667
0.00698744
0.00700433
0.00699292
0.00695102
0.00688739
0.00680273
0.00670053
0.00658207
0.00644915
0.00630301
0.006145
0.00597622
0.00579781
0.0056108
0.00541616
0.00521493
0.00500804
0.0047964
0.00458094
0.00436253
0.00414208
0.00392048
0.00369848
0.00347694
0.0032567
0.00303845
0.002823
0.00261113
0.00240349
0.00220081
0.00200372
0.00181288
0.0016289
0.00145239
0.00128388
0.00112393
0.000973029
0.000831633
0.000700201
0.000579129
0.000468832
0.000369624
0.000281831
0.000205741
0.000141592
8.96135e-05
4.99911e-05
2.28796e-05
8.39882e-06
6.63972e-06
1.76636e-05
4.14999e-05
7.81517e-05
0.000127591
0.000189766
0.000264604
0.000351993
0.000451821
0.000563919
0.000688117
0.000824203
0.000971958
0.00113116
0.00130155
0.00148282
0.00167469
0.00187683
0.00208888
0.00231054
0.00254145
0.00278123
0.00302947
0.00328578
0.00354974
0.00382094
0.004099
0.00438346
0.00467384
0.00496975
0.00527072
0.00557625
0.00588592
0.00619933
0.00651593
0.00683536
0.00715708
0.0074806
0.00780561
0.00813152
0.00845793
0.00878445
0.00911035
0.00943557
0.00975959
0.010082
0.010402
0.0107198
0.0110346
0.0113457
0.0116535
0.011957
0.012256
0.0125502
0.0128394
0.0131228
0.0134007
0.0136721
0.013937
0.014195
0.014446
0.0146895
0.0149254
0.0151533
0.0153728
0.015584
0.0157862
0.0159799
0.0161643
0.0163394
0.0165049
0.0166604
0.0168061
0.016942
0.0170674
0.0171824
0.0172863
0.0173801
0.0174629
0.0175343
0.0175947
0.0176435
0.0176813
0.0177072
0.0177208
0.0177229
0.0177127
0.0176899
0.0176542
0.0176062
0.0175451
0.0174717
0.0173849
0.0172848
0.0171715
0.0170444
0.0169035
0.0167482
0.0165773
0.0163894
0.0161855
0.0159579
0.0157116
0.0154247
0.0151146
0.0147409
0.0143283
0.0140391
0.0138773
0.013808
0.0138244
0.0139119
0.0140674
0.01428
0.0145556
0.0148889
0.015278
0.015727
0.0162375
0.0168119
0.0174444
0.0181524
0.0189346
0.019781
0.0207205
0.0217473
0.0228528
0.0240732
0.0253957
0.026834
0.0283871
0.0300932
0.031945
0.0339417
0.0361337
0.0385224
0.0410955
0.0439525
0.0470555
0.0504108
0.0540401
0.0579826
0.062235
0.0667465
0.0716298
0.0768809
0.0823928
0.0883613
0.0946687
0.101344
0.108362
0.115867
0.12376
0.13194
0.140588
0.149633
0.159018
0.168666
0.178678
0.18909
0.199324
0.210101
0.221029
0.232115
0.24352
0.255407
0.267726
0.280157
0.293288
0.307015
0.321037
0.335932
0.351413
0.367669
0.384455
0.402734
0.421773
0.441974
0.463244
0.486537
0.511465
0.537917
0.567205
0.599524
0.634388
0.672614
0.713391
0.756664
0.801544
0.849992
0.899996
0.951393
1.00402
1.05896
1.11459
1.16965
1.2252
1.28059
1.33358
1.38426
1.43163
1.47362
1.50842
1.53633
1.55508
1.5609
1.55494
1.53565
1.49878
1.44575
1.3809
1.30794
1.23185
1.15402
1.07701
1.00231
0.931081
0.86439
0.802252
0.745467
0.693647
0.647368
0.606347
0.570407
0.539322
0.513183
0.492093
0.475648
0.656101
0.6466
0.640794
0.637632
0.635714
0.633916
0.631423
0.627522
0.621668
0.612928
0.601097
0.585583
0.566436
0.543114
0.516042
0.485172
0.450726
0.413547
0.374036
0.332887
0.291197
0.250537
0.212596
0.178067
0.147313
0.12054
0.0974936
0.0780123
0.0617232
0.0482804
0.0372944
0.0284262
0.0213353
0.0157271
0.0113523
0.0079852
0.00543616
0.00354713
0.0021852
0.00124034
0.000621847
0.000255539
8.02347e-05
4.76211e-05
0.000119147
0.000264557
0.000461993
0.000694539
0.000950964
0.00122196
0.00150109
0.00178386
0.00206567
0.00234519
0.0026192
0.0028874
0.00314826
0.00340161
0.00364642
0.00388338
0.00411169
0.00433219
0.00454438
0.0047487
0.00494524
0.00513391
0.00531444
0.0054863
0.0056499
0.00580229
0.00594603
0.00607925
0.006204
0.00632031
0.00642868
0.0065295
0.00662297
0.00670971
0.00678979
0.00686368
0.00693195
0.00699464
0.00705223
0.00710519
0.00715355
0.00719787
0.0072389
0.00727692
0.00731267
0.00734701
0.00738089
0.00741546
0.00745208
0.00749028
0.00753003
0.00757097
0.00761302
0.00765586
0.0076999
0.00774465
0.00779106
0.00783836
0.00788681
0.00793642
0.00798721
0.00803899
0.00809177
0.00814514
0.00819895
0.00825286
0.00830637
0.00835937
0.00841121
0.0084621
0.00851131
0.00855982
0.00860683
0.00865504
0.00870551
0.00876302
0.0088295
0.00890617
0.00898264
0.00902891
0.00903669
0.00900787
0.00894242
0.00884826
0.00872771
0.00858443
0.0084203
0.00823749
0.00803801
0.00782301
0.00759483
0.00735421
0.00710297
0.00684236
0.00657332
0.00629792
0.00601684
0.00573141
0.00544281
0.00515228
0.00486092
0.00456984
0.00428013
0.00399284
0.00370901
0.0034297
0.00315585
0.00288841
0.00262829
0.00237637
0.00213346
0.0019004
0.00167801
0.00146695
0.00126796
0.00108167
0.000908704
0.000749635
0.000604989
0.00047529
0.000360953
0.000262391
0.00017996
0.00011398
6.47272e-05
3.24326e-05
1.7284e-05
1.9422e-05
3.89514e-05
7.59305e-05
0.000130383
0.000202296
0.000291614
0.000398255
0.000522094
0.000662982
0.00082073
0.000995114
0.00118586
0.00139269
0.00161532
0.00185339
0.00210653
0.00237438
0.00265649
0.0029524
0.00326167
0.00358382
0.00391836
0.0042648
0.0046226
0.00499116
0.00536991
0.0057583
0.00615587
0.00656184
0.0069757
0.00739685
0.00782476
0.00825836
0.00869778
0.00914166
0.00958977
0.0100417
0.0104961
0.010953
0.0114117
0.0118713
0.0123312
0.0127909
0.0132503
0.0137077
0.0141636
0.0146167
0.0150667
0.0155128
0.0159546
0.0163919
0.0168238
0.0172495
0.0176692
0.018082
0.0184877
0.0188852
0.0192745
0.0196554
0.0200267
0.0203883
0.0207398
0.0210817
0.021412
0.0217314
0.0220393
0.0223354
0.0226193
0.0228912
0.0231498
0.0233954
0.0236275
0.0238461
0.024051
0.0242415
0.0244174
0.0245792
0.0247261
0.0248582
0.0249741
0.0250751
0.025161
0.0252305
0.0252842
0.0253214
0.0253421
0.0253463
0.0253326
0.0253024
0.0252539
0.0251884
0.0251042
0.0250031
0.0248828
0.0247449
0.0245881
0.0244113
0.0242152
0.0239989
0.0237615
0.0235005
0.0232156
0.0229001
0.0225561
0.0221638
0.0217381
0.0212611
0.0207609
0.0203861
0.0201592
0.0200561
0.0200694
0.0201824
0.0203897
0.0206802
0.0210567
0.0215146
0.0220525
0.0226742
0.0233803
0.0241759
0.0250559
0.0260368
0.0271203
0.0282998
0.0296014
0.0310227
0.0325611
0.0342506
0.0360822
0.0380742
0.0402301
0.0425867
0.045144
0.0479107
0.050933
0.0542236
0.0577826
0.0617002
0.0659474
0.0705475
0.0755171
0.0808973
0.0866879
0.092863
0.0995104
0.106636
0.114165
0.122259
0.130808
0.139874
0.149414
0.159561
0.170214
0.181325
0.193011
0.205207
0.21787
0.230932
0.24444
0.258419
0.272383
0.286963
0.301742
0.316868
0.332393
0.348529
0.365184
0.382202
0.400027
0.418607
0.437743
0.457943
0.478932
0.501
0.523917
0.548615
0.574387
0.601819
0.630755
0.662226
0.695817
0.731808
0.771267
0.814528
0.861196
0.912035
0.966121
1.02357
1.08341
1.14742
1.2134
1.28156
1.35131
1.42371
1.49682
1.56969
1.64283
1.71541
1.78501
1.85163
1.91344
1.96841
2.01443
2.05103
2.07549
2.08423
2.07737
2.05307
2.00758
1.9425
1.86221
1.77102
1.67461
1.57513
1.47586
1.37876
1.28552
1.19751
1.11505
1.03922
0.969727
0.907259
0.851587
0.802585
0.760061
0.724095
0.694835
0.671863
0.849947
0.836149
0.827096
0.821403
0.817411
0.813781
0.809468
0.803568
0.795357
0.783818
0.768573
0.748961
0.724923
0.695934
0.662318
0.624083
0.581486
0.535397
0.486369
0.435273
0.383394
0.332487
0.284476
0.240356
0.20067
0.165763
0.135439
0.109545
0.0876826
0.0694586
0.0544111
0.0421285
0.0321948
0.0242381
0.0179405
0.0130131
0.00920816
0.00631821
0.00416719
0.00260768
0.00151747
0.000795869
0.000358491
0.000138272
8.1427e-05
0.000144572
0.000295021
0.000507548
0.000764673
0.00105212
0.00135986
0.00168043
0.00200685
0.00233605
0.00266347
0.00298743
0.00330571
0.00361758
0.00392128
0.00421705
0.00450381
0.00478201
0.0050514
0.00531166
0.00556312
0.00580543
0.00603879
0.00626133
0.00647495
0.00667633
0.00686707
0.00704607
0.00721422
0.00737177
0.00751964
0.00765768
0.00778678
0.00790661
0.0080184
0.00812229
0.00821856
0.00830748
0.00838985
0.00846576
0.00853594
0.00860067
0.00866067
0.00871645
0.00876923
0.00881953
0.00886859
0.00891745
0.00896696
0.00901722
0.00906911
0.00912158
0.00917479
0.00922891
0.00928372
0.00933966
0.00939631
0.00945384
0.00951248
0.0095724
0.00963273
0.0096941
0.00975614
0.00981823
0.00988064
0.00994235
0.0100036
0.0100632
0.010121
0.0101772
0.0102307
0.0102828
0.0103327
0.0103827
0.010434
0.0104904
0.0105525
0.0106098
0.0106486
0.0106652
0.0106531
0.0106
0.0105072
0.0103809
0.010224
0.0100402
0.00983182
0.00960171
0.00935211
0.00908529
0.00880259
0.00850596
0.00819716
0.00787784
0.00754998
0.00721453
0.00687329
0.00652777
0.00617933
0.00582976
0.00547983
0.00513172
0.00478595
0.0044442
0.00410767
0.00377763
0.00345521
0.00314158
0.00283785
0.00254507
0.00226423
0.00199633
0.0017423
0.00150304
0.00127936
0.00107203
0.000881791
0.000709322
0.000555269
0.000420204
0.000304661
0.000209087
0.000133914
7.95058e-05
4.61723e-05
3.41755e-05
4.37157e-05
7.49449e-05
0.000127962
0.000202809
0.000299502
0.000418013
0.000558234
0.000720032
0.000903253
0.00110771
0.00133309
0.00157915
0.00184549
0.00213182
0.00243767
0.00276265
0.00310629
0.00346805
0.00384744
0.00424382
0.00465668
0.00508539
0.00552934
0.00598786
0.00646028
0.00694604
0.00744402
0.00795394
0.00847479
0.00900601
0.0095467
0.0100964
0.0106542
0.011219
0.0117904
0.0123672
0.012949
0.0135347
0.014124
0.0147161
0.0153096
0.0159041
0.0164988
0.0170928
0.0176861
0.0182768
0.0188646
0.0194483
0.0200292
0.0206038
0.0211738
0.0217375
0.0222931
0.0228418
0.0233821
0.0239138
0.0244353
0.0249473
0.0254474
0.0259371
0.0264152
0.0268807
0.0273329
0.0277725
0.028198
0.0286084
0.0290049
0.0293863
0.0297523
0.0301018
0.0304343
0.0307505
0.0310501
0.031332
0.0315959
0.0318417
0.032069
0.0322777
0.0324676
0.0326378
0.0327889
0.0329207
0.0330316
0.033123
0.0331933
0.0332425
0.0332714
0.0332782
0.0332622
0.0332249
0.0331658
0.0330832
0.0329781
0.0328498
0.0326978
0.0325229
0.032323
0.0320994
0.0318506
0.0315742
0.0312713
0.030939
0.0305749
0.030174
0.029737
0.0292462
0.0287169
0.0281578
0.0275969
0.0271532
0.0268663
0.0267295
0.0267357
0.0268703
0.0271234
0.0274864
0.0279596
0.0285368
0.029218
0.0300073
0.0309037
0.0319143
0.033037
0.0342844
0.0356609
0.0371676
0.0388217
0.040628
0.0425919
0.0447372
0.0470633
0.0495963
0.0523379
0.055326
0.0585664
0.0620807
0.0659036
0.0700626
0.0745714
0.0795004
0.0848361
0.0906191
0.0968575
0.103592
0.110828
0.118572
0.126872
0.135749
0.145164
0.155233
0.165865
0.177151
0.189031
0.201616
0.21481
0.228632
0.243109
0.258201
0.273872
0.290075
0.306788
0.324029
0.341468
0.35956
0.377904
0.396811
0.416179
0.43626
0.456947
0.478265
0.500465
0.523554
0.547465
0.572592
0.598695
0.626179
0.654818
0.685435
0.717432
0.751584
0.787623
0.826611
0.868158
0.912955
0.961646
1.01474
1.07191
1.13389
1.19966
1.26953
1.34252
1.42
1.49985
1.58267
1.66724
1.75461
1.84273
1.93108
2.01922
2.10634
2.19024
2.27031
2.34436
2.41046
2.46617
2.51035
2.53998
2.55193
2.5451
2.51778
2.46697
2.39449
2.30392
2.20022
2.08869
1.9727
1.85582
1.74046
1.62882
1.52258
1.42253
1.32976
1.24436
1.16712
1.09787
1.03664
0.983258
0.937835
0.900567
0.871065
1.04611
1.02743
1.01454
1.00567
0.998994
0.992995
0.986392
0.978157
0.967304
0.952869
0.934189
0.910665
0.882046
0.847816
0.808214
0.763265
0.713287
0.659093
0.601382
0.541163
0.479876
0.419363
0.361707
0.308197
0.259593
0.216405
0.178536
0.145878
0.118045
0.0946095
0.0750718
0.0589566
0.0457822
0.0351075
0.0265477
0.0197531
0.014418
0.010284
0.00712958
0.00476811
0.00304344
0.001826
0.00100571
0.000494397
0.000221108
0.000127477
0.000167729
0.0003066
0.000518655
0.000783433
0.0010862
0.00141577
0.0017621
0.00211972
0.0024822
0.00284625
0.00320842
0.00356725
0.00391987
0.00426601
0.00460407
0.00493391
0.00525533
0.00556725
0.00587019
0.00616321
0.00644739
0.00671896
0.00698144
0.00723174
0.00746976
0.00769571
0.00790829
0.00810934
0.00829825
0.00847555
0.00864229
0.00879796
0.00894408
0.00908019
0.00920706
0.00932507
0.00943482
0.00953646
0.00963068
0.00971861
0.0097998
0.00987611
0.00994795
0.0100159
0.010082
0.0101463
0.0102096
0.010273
0.0103371
0.0104008
0.0104653
0.0105298
0.010595
0.0106608
0.0107264
0.0107933
0.0108605
0.0109281
0.0109967
0.0110653
0.0111338
0.0112022
0.0112702
0.0113369
0.0114019
0.0114648
0.0115252
0.0115826
0.0116367
0.0116874
0.011736
0.0117823
0.0118283
0.0118752
0.0119222
0.0119485
0.0119364
0.011912
0.0118709
0.0117873
0.011664
0.0115045
0.0113106
0.0110873
0.010837
0.0105631
0.0102677
0.00995393
0.00962248
0.00927624
0.00891757
0.00854761
0.00816923
0.00778308
0.00739194
0.00699676
0.00659964
0.00620198
0.0058056
0.0054123
0.00502297
0.00463965
0.00426351
0.00389616
0.00353895
0.003193
0.00285963
0.00254014
0.00223562
0.00194716
0.00167589
0.0014228
0.00118879
0.000974777
0.000781539
0.000609866
0.00046048
0.000334007
0.000231041
0.000152073
9.75861e-05
6.79578e-05
6.35252e-05
8.45565e-05
0.000131259
0.000203771
0.000302162
0.00042648
0.000576704
0.000752787
0.000954555
0.00118185
0.00143445
0.00171206
0.00201442
0.00234111
0.0026917
0.00306574
0.00346274
0.00388217
0.00432352
0.00478607
0.00526927
0.00577235
0.00629466
0.00683527
0.00739389
0.00796937
0.00856131
0.00916803
0.00978938
0.0104248
0.0110727
0.0117325
0.0124027
0.0130834
0.0137734
0.0144718
0.0151763
0.0158886
0.0166055
0.0173271
0.0180524
0.0187802
0.0195092
0.0202392
0.0209695
0.0216987
0.0224255
0.0231498
0.0238696
0.0245855
0.025296
0.0260007
0.026698
0.0273865
0.028067
0.0287383
0.0293989
0.030048
0.0306861
0.0313115
0.0319229
0.0325216
0.0331051
0.0336747
0.0342281
0.034764
0.0352845
0.0357874
0.0362714
0.0367378
0.0371844
0.0376117
0.0380193
0.038406
0.0387722
0.0391178
0.0394406
0.0397422
0.0400221
0.0402774
0.0405117
0.0407211
0.040908
0.0410696
0.0412075
0.0413209
0.0414084
0.0414713
0.0415082
0.0415194
0.0415035
0.0414609
0.0413905
0.0412935
0.041168
0.0410144
0.0408326
0.040622
0.0403811
0.040112
0.0398113
0.0394779
0.0391124
0.0387101
0.0382706
0.0377876
0.0372626
0.0366819
0.0360629
0.0354404
0.0348379
0.0343414
0.0340012
0.0338324
0.0338303
0.033982
0.0342769
0.0347067
0.0352702
0.0359613
0.0367814
0.0377314
0.0388123
0.0400317
0.0413904
0.0428971
0.0445594
0.0463829
0.0483813
0.0505625
0.0529396
0.0555274
0.0583347
0.0613916
0.064702
0.0682987
0.0721984
0.0764335
0.081027
0.0860194
0.0914351
0.0973238
0.10369
0.110591
0.118025
0.126029
0.134618
0.143826
0.153664
0.164166
0.175333
0.187225
0.19978
0.213115
0.227145
0.241962
0.257482
0.27379
0.290809
0.308532
0.326946
0.346012
0.36564
0.385851
0.406493
0.427802
0.449438
0.471847
0.494774
0.518496
0.542911
0.568229
0.594465
0.621719
0.650053
0.679717
0.710543
0.743026
0.776963
0.812981
0.850699
0.891073
0.933598
0.979434
1.02824
1.08102
1.13799
1.19983
1.2663
1.33791
1.41376
1.49443
1.57873
1.66774
1.75927
1.85463
1.95194
2.05194
2.15253
2.254
2.35473
2.45405
2.54982
2.64114
2.72538
2.80093
2.86477
2.91566
2.94986
2.96534
2.95963
2.9312
2.87824
2.80246
2.7065
2.59535
2.4739
2.34623
2.21618
2.08665
1.96018
1.8388
1.72384
1.6163
1.5169
1.42626
1.34458
1.27197
1.20843
1.15397
1.10888
1.07285
1.24413
1.22021
1.20287
1.19027
1.18036
1.17147
1.16211
1.15119
1.13749
1.11999
1.09801
1.07067
1.03777
0.998722
0.953695
0.902757
0.84615
0.784676
0.719125
0.650623
0.580723
0.51127
0.444444
0.381801
0.324353
0.272773
0.22713
0.187382
0.153193
0.124122
0.0996641
0.0792847
0.0624571
0.0486748
0.0374931
0.028503
0.0213416
0.0156988
0.0113061
0.00793559
0.00539507
0.00352391
0.00218392
0.00126359
0.000672534
0.00033568
0.000191849
0.000193879
0.000306644
0.000502013
0.000759526
0.00106307
0.00139908
0.00175883
0.00213357
0.00251789
0.00290663
0.00329734
0.0036858
0.00407096
0.00445047
0.00482337
0.00518955
0.00554661
0.00589567
0.00623497
0.00656572
0.00688326
0.00719273
0.00748983
0.00777423
0.00804595
0.00830341
0.00854778
0.00877846
0.00899656
0.00920188
0.0093953
0.00957722
0.00974738
0.00990604
0.0100556
0.0101944
0.0103236
0.0104443
0.0105569
0.0106622
0.0107604
0.0108529
0.0109403
0.0110251
0.011106
0.0111838
0.0112607
0.0113365
0.0114115
0.0114873
0.011562
0.0116364
0.0117106
0.0117847
0.0118589
0.0119327
0.0120065
0.0120807
0.0121542
0.012227
0.0122995
0.0123698
0.012439
0.0125044
0.012568
0.0126274
0.0126827
0.0127334
0.0127784
0.0128205
0.0128587
0.0128928
0.012923
0.0129452
0.0129308
0.0128598
0.0127865
0.0127094
0.0125909
0.0124345
0.0122391
0.0120093
0.0117487
0.0114599
0.0111463
0.01081
0.0104538
0.0100807
0.00969262
0.00929121
0.00888014
0.0084593
0.00803275
0.00760132
0.0071676
0.0067329
0.00629932
0.00586891
0.00544222
0.00502268
0.00461087
0.00420891
0.0038178
0.00343943
0.00307519
0.00272637
0.00239433
0.00208043
0.00178585
0.00151173
0.00125918
0.00102922
0.00082277
0.000640753
0.000483969
0.000353196
0.00024912
0.000172341
0.000123412
0.000102806
0.000110929
0.000148114
0.000214629
0.00031066
0.000436296
0.000591601
0.000776634
0.000991323
0.00123553
0.0015091
0.00181181
0.00214332
0.00250335
0.0028915
0.00330729
0.00375025
0.00421978
0.00471531
0.00523635
0.00578202
0.00635157
0.00694492
0.00756011
0.00819725
0.00885512
0.00953284
0.0102297
0.0109448
0.0116766
0.0124253
0.0131885
0.0139661
0.0147573
0.0155601
0.0163738
0.0171975
0.0180304
0.0188711
0.0197188
0.0205727
0.0214312
0.0222928
0.023156
0.0240221
0.0248879
0.0257537
0.0266175
0.0274788
0.0283357
0.0291884
0.0300361
0.0308754
0.031709
0.0325318
0.0333464
0.0341505
0.0349432
0.0357239
0.0364899
0.0372435
0.037982
0.0387047
0.0394121
0.0401005
0.0407723
0.0414258
0.0420596
0.042673
0.0432676
0.0438397
0.04439
0.0449178
0.0454229
0.0459058
0.0463638
0.0467957
0.0472053
0.047588
0.0479455
0.0482767
0.0485809
0.0488581
0.0491081
0.0493306
0.0495231
0.049689
0.0498247
0.0499312
0.0500085
0.0500553
0.0500706
0.0500564
0.0500095
0.0499309
0.0498197
0.0496762
0.0494983
0.0492894
0.0490444
0.0487669
0.0484529
0.0481018
0.0477145
0.0472893
0.04682
0.0463094
0.0457497
0.0451422
0.0444826
0.0437873
0.0431166
0.0424904
0.0419532
0.0415694
0.0413701
0.0413583
0.0415239
0.0418562
0.042349
0.0429956
0.0437957
0.0447485
0.0458516
0.047112
0.0485325
0.050119
0.0518779
0.0538172
0.0559488
0.0582808
0.0608249
0.0635996
0.0666161
0.069891
0.0734514
0.0773104
0.0814935
0.0860274
0.0909548
0.0962835
0.102072
0.10835
0.115146
0.122482
0.130435
0.138984
0.148172
0.15802
0.168586
0.179844
0.191844
0.204623
0.218184
0.232499
0.247709
0.263701
0.280544
0.298172
0.316731
0.33605
0.356149
0.377035
0.398686
0.420942
0.443841
0.467409
0.491636
0.516289
0.541911
0.568094
0.595158
0.622995
0.651984
0.681947
0.713005
0.745422
0.779212
0.814346
0.851456
0.8902
0.931186
0.974099
1.02009
1.06853
1.12051
1.17586
1.23585
1.30014
1.36958
1.4441
1.52391
1.60834
1.69808
1.79209
1.89058
1.99193
2.09768
2.2055
2.31593
2.42678
2.5391
2.65007
2.75936
2.86462
2.96519
3.05763
3.14087
3.21177
3.26828
3.30685
3.32605
3.32261
3.29493
3.24259
3.16721
3.0704
2.95645
2.82987
2.6951
2.55613
2.41644
2.27878
2.14535
2.01794
1.89809
1.78651
1.68405
1.59113
1.50815
1.43505
1.37206
1.31941
1.27681
1.44364
1.4141
1.39185
1.37497
1.36124
1.34902
1.33659
1.32257
1.30584
1.28522
1.25987
1.22899
1.19204
1.14871
1.09877
1.04244
0.980025
0.912064
0.839566
0.763637
0.685972
0.608262
0.532789
0.461345
0.395172
0.33516
0.281552
0.234422
0.193506
0.158397
0.128578
0.103499
0.0825943
0.0652971
0.0511161
0.0395813
0.0302752
0.0228361
0.0169487
0.0123419
0.00878482
0.00608398
0.00407066
0.00260786
0.00158392
0.000904592
0.000491291
0.00028301
0.000233003
0.000303994
0.000468499
0.000704368
0.000993684
0.00132377
0.00168293
0.00206307
0.00245703
0.00286073
0.00326863
0.00367797
0.00408632
0.00449086
0.00489156
0.00528534
0.00567262
0.00605181
0.00642291
0.00678243
0.00713398
0.00747444
0.00780282
0.00811795
0.00841894
0.00870516
0.00897765
0.00923646
0.0094808
0.00971205
0.0099304
0.0101355
0.0103276
0.0105091
0.0106782
0.0108366
0.0109854
0.0111241
0.0112544
0.0113754