/*--------------------------------*- C++ -*----------------------------------*\
| =========                 |                                                 |
| \\      /  F ield         | OpenFOAM: The Open Source CFD Toolbox           |
|  \\    /   O peration     | Version:  v2006                                 |
|   \\  /    A nd           | Website:  www.openfoam.com                      |
|    \\/     M anipulation  |                                                 |
\*---------------------------------------------------------------------------*/
FoamFile
{
    version     2.0;
    format      ascii;
    class       volScalarField;
    location    "10";
    object      T;
}
// * * * * * * * * * * * * * * * * * * * * * * * * * * * * * * * * * * * * * //

dimensions      [0 2 -2 0 0 0 0];


internalField   nonuniform List<scalar> 
80000
(
0.0110027
0.0109866
0.010975
0.0109643
0.0109525
0.0109371
0.0109174
0.0108937
0.0108655
0.010831
0.0107901
0.0107428
0.0106886
0.010626
0.0105553
0.0104744
0.0103814
0.0102763
0.0101549
0.0100113
0.0098439
0.00965861
0.00946502
0.00926537
0.0090613
0.00885484
0.00864614
0.00843669
0.00822749
0.00801921
0.00781238
0.00760801
0.00740619
0.00720702
0.0070116
0.00682024
0.00663293
0.0064502
0.00627243
0.00609997
0.00593351
0.0057736
0.00561983
0.00547282
0.00533399
0.00520349
0.00507956
0.00496121
0.00484733
0.00473739
0.00463106
0.0045278
0.00442797
0.00433112
0.00423723
0.00414632
0.00405806
0.00397216
0.00388885
0.00380796
0.00372938
0.003653
0.00357856
0.00350619
0.00343564
0.00336669
0.0032992
0.00323337
0.00316844
0.00310459
0.0030425
0.00298207
0.00292381
0.00286769
0.00281364
0.00276169
0.00271183
0.00266406
0.00261828
0.00257458
0.00253291
0.00249317
0.0024554
0.00241954
0.0023855
0.00235337
0.00232312
0.0022947
0.00226812
0.00224341
0.00222058
0.00219982
0.00218113
0.00216416
0.00214872
0.0021347
0.00212198
0.00211055
0.00210039
0.00209141
0.0020836
0.00207691
0.00207132
0.00206683
0.00206343
0.00206112
0.00205988
0.00205972
0.00206062
0.00206262
0.00206577
0.00207005
0.00207552
0.00208218
0.00209018
0.00209965
0.00211053
0.00212311
0.00213775
0.00215478
0.0021752
0.00220294
0.00223541
0.002265
0.00228914
0.00231104
0.00233152
0.00235099
0.00236966
0.00238769
0.00240517
0.00242216
0.00243872
0.00245489
0.0024707
0.00248617
0.00250133
0.00251618
0.00253076
0.00254506
0.00255912
0.00257294
0.00258652
0.0025999
0.00261306
0.00262603
0.00263881
0.00265141
0.00266385
0.00267612
0.00268825
0.00270023
0.00271207
0.00272378
0.00273538
0.00274686
0.00275823
0.00276949
0.00278066
0.00279174
0.00280274
0.00281365
0.00282449
0.00283525
0.00284595
0.00285658
0.00286716
0.00287768
0.00288814
0.00289856
0.00290892
0.00291924
0.00292952
0.00293975
0.00294995
0.00296011
0.00297023
0.00298031
0.00299036
0.00300037
0.00301035
0.00302029
0.0030302
0.00304007
0.0030499
0.0030597
0.00306946
0.00307917
0.00308885
0.00309849
0.00310808
0.00311762
0.00312712
0.00313657
0.00314596
0.0031553
0.00316458
0.0031738
0.00318295
0.00319204
0.00320106
0.00321001
0.00321888
0.00322767
0.00323638
0.003245
0.00325353
0.00326197
0.00327031
0.00327854
0.00328667
0.00329469
0.0033026
0.00331039
0.00331805
0.00332559
0.003333
0.00334028
0.00334741
0.0033544
0.00336124
0.00336793
0.00337447
0.00338084
0.00338705
0.00339309
0.00339895
0.00340464
0.00341015
0.00341547
0.0034206
0.00342553
0.00343027
0.0034348
0.00343913
0.00344324
0.00344715
0.00345083
0.0034543
0.00345753
0.00346054
0.00346332
0.00346587
0.00346817
0.00347024
0.00347206
0.00347363
0.00347496
0.00347603
0.00347685
0.00347742
0.00347773
0.00347778
0.00347758
0.00347711
0.00347638
0.00347539
0.00347414
0.00347262
0.00347084
0.0034688
0.00346649
0.00346392
0.00346108
0.00345798
0.00345459
0.00345092
0.00344693
0.00344262
0.00343791
0.00343276
0.00342706
0.00342064
0.00341329
0.00340459
0.00339389
0.00337983
0.0033571
0.00332972
0.00330902
0.00329854
0.00329267
0.00328987
0.00328969
0.00329159
0.00329511
0.00330051
0.00330748
0.00331567
0.00332528
0.00333647
0.00334892
0.00336231
0.00337746
0.00339397
0.00341123
0.00343041
0.00345099
0.00347233
0.0034956
0.00352049
0.0035464
0.00357356
0.00360291
0.00363384
0.00366572
0.00370001
0.00373603
0.00377333
0.00381408
0.00385762
0.00390256
0.00394948
0.00399929
0.00405115
0.00410362
0.00415883
0.00421639
0.00427453
0.00433537
0.00439847
0.00446231
0.00452742
0.00459557
0.00466578
0.00473608
0.00480859
0.00488367
0.00495992
0.00503653
0.00511566
0.00519659
0.00527539
0.00535581
0.00543778
0.00551877
0.00560056
0.00568506
0.00577138
0.00585693
0.00594498
0.00603563
0.00612673
0.00622026
0.00631643
0.00641356
0.00651169
0.006614
0.00671913
0.00682503
0.00693265
0.00704495
0.0071606
0.0072767
0.00739823
0.00752676
0.00766091
0.00780213
0.00794997
0.00810113
0.00825474
0.00841518
0.00858043
0.00874621
0.00891386
0.00908651
0.00926202
0.00943542
0.00960991
0.00978594
0.00996
0.0101314
0.010301
0.010465
0.0106213
0.0107725
0.0109163
0.0110474
0.0111685
0.0112791
0.0113689
0.0114344
0.0114792
0.0115079
0.0115256
0.0115329
0.0115307
0.0115202
0.0115027
0.0114789
0.0114489
0.0114135
0.0113729
0.0113288
0.0112818
0.011232
0.0111798
0.0111278
0.0110778
0.0110329
0.0331792
0.0331276
0.0330893
0.0330533
0.0330137
0.0329635
0.0329008
0.032826
0.0327373
0.0326301
0.032504
0.0323587
0.032193
0.0320026
0.0317881
0.0315435
0.0312631
0.0309468
0.0305826
0.0301543
0.029657
0.0291071
0.0285313
0.0279366
0.0273282
0.0267118
0.0260884
0.025462
0.0248358
0.0242118
0.0235917
0.0229784
0.0223724
0.0217741
0.0211866
0.020611
0.0200473
0.0194971
0.0189616
0.0184419
0.0179399
0.0174574
0.0169933
0.0165493
0.0161295
0.0157342
0.0153588
0.0150002
0.0146553
0.0143224
0.0140004
0.0136879
0.0133856
0.0130924
0.0128083
0.0125331
0.0122659
0.012006
0.0117539
0.0115091
0.0112713
0.0110402
0.010815
0.010596
0.0103826
0.0101741
0.00997006
0.00977098
0.0095749
0.0093822
0.00919468
0.00901225
0.00883622
0.00866663
0.0085033
0.00834626
0.00819555
0.0080511
0.0079127
0.00778053
0.00765448
0.00753426
0.00741998
0.00731148
0.00720851
0.00711126
0.0070197
0.00693367
0.00685318
0.00677834
0.00670919
0.0066462
0.00658936
0.00653775
0.00649078
0.00644814
0.00640946
0.00637469
0.00634378
0.00631644
0.00629264
0.00627225
0.00625523
0.0062415
0.0062311
0.00622401
0.00622015
0.00621956
0.00622222
0.00622821
0.00623764
0.00625054
0.00626703
0.00628716
0.00631132
0.00633991
0.00637281
0.00641086
0.00645513
0.00650664
0.00656841
0.00665036
0.00674497
0.00683212
0.00690479
0.00697079
0.00703254
0.00709124
0.00714756
0.00720193
0.00725465
0.00730591
0.00735587
0.00740464
0.00745233
0.007499
0.00754472
0.00758954
0.00763351
0.00767668
0.00771909
0.00776078
0.00780178
0.00784212
0.00788184
0.00792097
0.00795954
0.00799757
0.00803509
0.00807214
0.00810872
0.00814487
0.00818061
0.00821596
0.00825095
0.00828559
0.00831989
0.00835389
0.0083876
0.00842103
0.0084542
0.00848713
0.00851983
0.00855231
0.00858458
0.00861666
0.00864857
0.0086803
0.00871187
0.00874328
0.00877455
0.00880568
0.00883668
0.00886756
0.00889831
0.00892895
0.00895947
0.00898988
0.00902018
0.00905038
0.00908047
0.00911045
0.00914032
0.00917008
0.00919973
0.00922927
0.00925869
0.00928799
0.00931717
0.00934622
0.00937513
0.00940391
0.00943253
0.00946101
0.00948932
0.00951747
0.00954544
0.00957323
0.00960083
0.00962823
0.00965541
0.00968238
0.00970911
0.00973561
0.00976185
0.00978783
0.00981354
0.00983896
0.00986409
0.00988891
0.0099134
0.00993757
0.0099614
0.00998486
0.010008
0.0100307
0.010053
0.0100749
0.0100964
0.0101175
0.0101381
0.0101582
0.0101779
0.0101971
0.0102158
0.010234
0.0102517
0.0102688
0.0102854
0.0103015
0.0103169
0.0103318
0.010346
0.0103597
0.0103727
0.0103851
0.0103969
0.010408
0.0104184
0.0104282
0.0104372
0.0104456
0.0104533
0.0104602
0.0104664
0.0104719
0.0104767
0.0104807
0.0104839
0.0104864
0.0104881
0.010489
0.0104892
0.0104885
0.0104871
0.0104849
0.0104819
0.0104782
0.0104736
0.0104682
0.0104621
0.0104551
0.0104474
0.0104388
0.0104295
0.0104193
0.0104082
0.0103962
0.0103832
0.010369
0.0103535
0.0103363
0.010317
0.0102949
0.0102687
0.0102366
0.0101944
0.010129
0.0100516
0.00999195
0.00996035
0.00994261
0.00993421
0.00993367
0.00993941
0.00995017
0.0099665
0.00998757
0.0100124
0.0100416
0.0100755
0.0101131
0.0101539
0.0101997
0.0102496
0.0103021
0.0103601
0.0104224
0.0104872
0.0105577
0.010633
0.0107115
0.010794
0.0108828
0.0109764
0.0110732
0.011177
0.011286
0.0113994
0.0115226
0.0116539
0.0117897
0.0119316
0.0120818
0.012238
0.0123966
0.0125632
0.0127365
0.0129122
0.0130956
0.0132855
0.013478
0.0136746
0.0138798
0.0140909
0.0143031
0.0145216
0.0147474
0.0149768
0.0152079
0.015446
0.0156889
0.0159268
0.0161693
0.0164159
0.0166605
0.0169078
0.0171627
0.0174227
0.0176814
0.0179474
0.0182207
0.0184961
0.0187786
0.0190686
0.0193619
0.0196589
0.0199678
0.0202848
0.0206048
0.0209305
0.0212695
0.0216182
0.0219697
0.022337
0.0227244
0.0231287
0.0235534
0.023997
0.0244507
0.0249125
0.0253935
0.0258881
0.0263849
0.0268876
0.027404
0.0279281
0.0284466
0.0289678
0.0294924
0.0300111
0.0305216
0.0310251
0.0315121
0.0319766
0.0324244
0.0328496
0.0332378
0.0335958
0.0339218
0.0341881
0.0343856
0.0345235
0.0346148
0.0346734
0.034701
0.0347005
0.0346753
0.0346287
0.0345631
0.0344788
0.0343782
0.0342617
0.0341342
0.0339979
0.0338528
0.0337006
0.0335485
0.0334016
0.0332701
0.0556774
0.0555872
0.0555184
0.0554531
0.0553814
0.0552922
0.0551822
0.0550519
0.0548986
0.0547147
0.0544998
0.0542532
0.0539729
0.0536521
0.0532915
0.0528814
0.0524128
0.0518845
0.0512778
0.0505669
0.0497442
0.048835
0.0478808
0.0468941
0.0458835
0.0448584
0.0438206
0.0427771
0.0417328
0.0406913
0.0396556
0.0386304
0.0376167
0.0366155
0.0356317
0.0346673
0.0337225
0.0328
0.0319017
0.0310295
0.0301868
0.029376
0.0285962
0.02785
0.0271435
0.0264775
0.0258448
0.0252404
0.0246591
0.0240982
0.0235557
0.0230293
0.0225202
0.0220264
0.0215478
0.0210842
0.0206342
0.0201966
0.019772
0.0193597
0.0189593
0.0185702
0.0181911
0.0178224
0.0174631
0.0171122
0.0167689
0.0164339
0.0161042
0.0157803
0.0154651
0.0151585
0.0148624
0.0145772
0.0143024
0.0140382
0.0137847
0.0135416
0.0133087
0.0130862
0.012874
0.0126716
0.0124792
0.0122965
0.0121232
0.0119594
0.0118052
0.0116602
0.0115246
0.0113985
0.011282
0.0111757
0.0110796
0.0109923
0.0109129
0.0108408
0.0107754
0.0107166
0.0106643
0.010618
0.0105777
0.0105432
0.0105143
0.010491
0.0104733
0.0104612
0.0104546
0.0104534
0.0104578
0.0104678
0.0104835
0.0105051
0.0105328
0.0105666
0.0106072
0.0106553
0.0107106
0.0107747
0.0108491
0.0109358
0.0110395
0.0111748
0.0113297
0.0114733
0.011595
0.0117057
0.0118093
0.0119079
0.0120025
0.0120938
0.0121823
0.0122684
0.0123523
0.0124343
0.0125144
0.0125928
0.0126696
0.0127449
0.0128188
0.0128914
0.0129627
0.0130327
0.0131016
0.0131694
0.0132362
0.013302
0.0133668
0.0134307
0.0134938
0.0135561
0.0136176
0.0136783
0.0137384
0.0137978
0.0138566
0.0139148
0.0139725
0.0140296
0.0140863
0.0141425
0.0141982
0.0142536
0.0143085
0.0143631
0.0144173
0.0144712
0.0145248
0.0145781
0.0146312
0.0146839
0.0147365
0.0147887
0.0148408
0.0148927
0.0149443
0.0149958
0.015047
0.0150981
0.0151489
0.0151996
0.0152501
0.0153005
0.0153506
0.0154005
0.0154503
0.0154999
0.0155492
0.0155984
0.0156474
0.0156961
0.0157446
0.0157929
0.0158409
0.0158886
0.0159361
0.0159833
0.0160302
0.0160768
0.0161231
0.0161691
0.0162146
0.0162599
0.0163047
0.0163491
0.0163931
0.0164366
0.0164797
0.0165223
0.0165645
0.0166061
0.0166471
0.0166876
0.0167275
0.0167669
0.0168056
0.0168437
0.0168811
0.0169178
0.0169538
0.0169891
0.0170236
0.0170574
0.0170904
0.0171226
0.0171539
0.0171844
0.017214
0.0172427
0.0172705
0.0172973
0.0173232
0.0173481
0.017372
0.0173949
0.0174167
0.0174375
0.0174572
0.0174758
0.0174932
0.0175096
0.0175248
0.0175388
0.0175516
0.0175632
0.0175736
0.0175828
0.0175907
0.0175974
0.0176028
0.017607
0.0176098
0.0176114
0.0176116
0.0176106
0.0176082
0.0176045
0.0175995
0.0175931
0.0175855
0.0175765
0.0175662
0.0175545
0.0175415
0.0175272
0.0175115
0.0174944
0.0174759
0.0174558
0.0174339
0.0174102
0.0173842
0.0173555
0.0173231
0.0172861
0.0172423
0.0171886
0.0171183
0.0170128
0.0168892
0.0167927
0.01674
0.0167102
0.0166962
0.0166953
0.016705
0.0167232
0.0167507
0.0167861
0.0168281
0.0168773
0.0169342
0.0169975
0.0170663
0.0171434
0.0172273
0.0173159
0.0174135
0.0175181
0.0176275
0.0177461
0.0178727
0.018005
0.0181441
0.0182934
0.0184508
0.018614
0.0187885
0.0189719
0.019163
0.01937
0.0195901
0.0198181
0.0200565
0.0203082
0.0205698
0.0208363
0.0211155
0.0214056
0.0217004
0.0220077
0.0223254
0.022648
0.0229777
0.0233211
0.0236741
0.0240296
0.0243955
0.024773
0.0251566
0.0255436
0.0259417
0.0263473
0.0267461
0.0271522
0.0275649
0.0279751
0.0283901
0.0288172
0.0292525
0.029687
0.0301331
0.0305911
0.0310531
0.031527
0.032013
0.032505
0.0330038
0.0335216
0.0340527
0.0345896
0.0351364
0.0357047
0.0362887
0.0368787
0.0374946
0.0381428
0.0388187
0.0395278
0.040267
0.0410232
0.0417935
0.0425942
0.0434162
0.044243
0.0450794
0.0459373
0.0468067
0.0476679
0.0485325
0.0494015
0.0502606
0.0511056
0.0519377
0.0527424
0.0535103
0.0542498
0.0549511
0.0555929
0.0561851
0.0567239
0.0571678
0.0575031
0.0577434
0.0579084
0.0580194
0.0580791
0.0580921
0.0580639
0.0579994
0.0579024
0.0577737
0.057617
0.0574332
0.0572302
0.0570114
0.0567771
0.0565307
0.0562833
0.0560439
0.0558289
0.0784679
0.0783367
0.0782341
0.0781354
0.0780273
0.0778947
0.0777333
0.0775434
0.0773212
0.0770572
0.0767503
0.0763998
0.0760026
0.0755502
0.0750425
0.0744668
0.0738108
0.0730719
0.072225
0.0712361
0.0700946
0.0688333
0.0675068
0.0661331
0.0647243
0.0632931
0.061843
0.060383
0.0589205
0.0574606
0.0560076
0.054568
0.0531436
0.0517361
0.0503521
0.0489945
0.0476641
0.0463643
0.0450982
0.0438684
0.0426794
0.041535
0.040434
0.03938
0.0383809
0.0374382
0.0365423
0.0356864
0.0348634
0.0340692
0.0333012
0.0325563
0.0318356
0.0311367
0.0304594
0.0298032
0.0291664
0.0285472
0.0279464
0.0273631
0.0267965
0.0262459
0.0257096
0.0251881
0.0246798
0.0241835
0.0236981
0.0232244
0.0227585
0.0223012
0.0218558
0.0214227
0.0210044
0.0206012
0.0202129
0.0198394
0.0194809
0.0191372
0.0188078
0.0184932
0.018193
0.0179068
0.0176345
0.017376
0.0171307
0.016899
0.0166807
0.0164756
0.0162836
0.016105
0.0159399
0.0157892
0.0156527
0.0155288
0.0154159
0.0153134
0.0152205
0.015137
0.0150626
0.0149968
0.0149395
0.0148903
0.0148492
0.014816
0.0147907
0.0147734
0.0147637
0.0147619
0.0147679
0.0147818
0.0148039
0.0148343
0.0148733
0.0149211
0.0149784
0.0150462
0.0151244
0.0152149
0.0153201
0.0154424
0.0155886
0.0157766
0.0159899
0.0161891
0.0163602
0.0165162
0.0166623
0.0168013
0.0169348
0.0170636
0.0171886
0.0173102
0.0174287
0.0175444
0.0176575
0.0177682
0.0178767
0.0179831
0.0180875
0.01819
0.0182907
0.0183896
0.018487
0.0185828
0.0186771
0.0187701
0.0188617
0.018952
0.0190411
0.0191291
0.019216
0.0193019
0.0193867
0.0194707
0.0195538
0.019636
0.0197175
0.0197982
0.0198783
0.0199576
0.0200364
0.0201146
0.0201922
0.0202692
0.0203458
0.0204219
0.0204976
0.0205729
0.0206478
0.0207223
0.0207964
0.0208702
0.0209437
0.0210168
0.0210897
0.0211623
0.0212346
0.0213066
0.0213783
0.0214498
0.021521
0.021592
0.0216627
0.0217331
0.0218032
0.0218731
0.0219427
0.0220119
0.0220809
0.0221496
0.0222179
0.0222859
0.0223535
0.0224208
0.0224877
0.0225542
0.0226202
0.0226858
0.022751
0.0228157
0.0228798
0.0229435
0.0230065
0.0230691
0.023131
0.0231923
0.0232529
0.0233129
0.0233721
0.0234306
0.0234884
0.0235454
0.0236015
0.0236569
0.0237113
0.0237649
0.0238175
0.0238691
0.0239198
0.0239694
0.024018
0.0240654
0.0241118
0.0241571
0.0242011
0.024244
0.0242856
0.0243259
0.024365
0.0244027
0.0244391
0.0244741
0.0245077
0.0245399
0.0245705
0.0245997
0.0246274
0.0246535
0.0246781
0.024701
0.0247224
0.024742
0.02476
0.0247764
0.024791
0.0248039
0.024815
0.0248244
0.024832
0.0248377
0.0248417
0.0248439
0.0248442
0.0248427
0.0248393
0.0248341
0.024827
0.0248181
0.0248073
0.0247946
0.0247801
0.0247636
0.0247454
0.0247252
0.0247031
0.0246791
0.024653
0.0246247
0.024594
0.0245606
0.0245241
0.0244836
0.0244382
0.0243862
0.0243248
0.0242495
0.0241515
0.0240082
0.0238419
0.0237108
0.0236372
0.0235954
0.0235759
0.0235747
0.0235883
0.0236143
0.0236531
0.0237031
0.0237624
0.023832
0.0239123
0.0240018
0.0240992
0.024208
0.0243264
0.0244519
0.0245896
0.0247373
0.0248922
0.0250597
0.0252383
0.0254253
0.0256221
0.0258329
0.026055
0.0262859
0.0265322
0.026791
0.0270612
0.0273529
0.0276627
0.027984
0.0283198
0.0286739
0.0290417
0.029417
0.0298096
0.0302171
0.030632
0.0310638
0.0315099
0.0319632
0.032427
0.032909
0.0334041
0.0339036
0.0344174
0.0349469
0.035485
0.0360284
0.0365868
0.0371549
0.0377156
0.038286
0.0388651
0.0394421
0.0400261
0.0406264
0.0412378
0.0418496
0.0424772
0.0431207
0.0437711
0.0444375
0.0451207
0.0458128
0.0465153
0.0472432
0.0479895
0.0487447
0.0495144
0.0503129
0.051133
0.0519632
0.0528286
0.0537375
0.0546845
0.0556762
0.0567085
0.0577645
0.0588407
0.0599572
0.061102
0.0622543
0.06342
0.0646135
0.0658219
0.0670196
0.0682209
0.0694266
0.0706184
0.0717901
0.0729424
0.0740569
0.0751212
0.0761452
0.0771161
0.0780076
0.0788312
0.0795816
0.0802066
0.0806888
0.0810446
0.0812991
0.0814789
0.0815878
0.0816316
0.0816171
0.0815508
0.0814377
0.081279
0.0810795
0.0808409
0.0805736
0.0802822
0.0799678
0.0796353
0.0792996
0.0789733
0.0786792
0.101519
0.101345
0.101206
0.10107
0.100921
0.100741
0.100524
0.100271
0.0999757
0.0996283
0.0992269
0.0987705
0.0982553
0.0976709
0.0970167
0.0962768
0.0954361
0.09449
0.0934076
0.0921472
0.0906956
0.0890917
0.0874012
0.0856476
0.0838464
0.0820138
0.0801545
0.0782803
0.0764007
0.0745223
0.072651
0.0707952
0.0689576
0.0671408
0.0653528
0.0635979
0.0618774
0.0601957
0.0585567
0.0569641
0.0554236
0.0539399
0.0525121
0.0511447
0.0498472
0.0486216
0.0474565
0.0463432
0.0452729
0.0442401
0.0432415
0.0422731
0.0413361
0.0404277
0.0395471
0.0386941
0.0378663
0.0370615
0.0362806
0.0355225
0.0347861
0.0340705
0.0333737
0.0326959
0.0320355
0.0313908
0.0307604
0.0301451
0.0295404
0.0289471
0.0283692
0.0278073
0.0272643
0.0267409
0.0262367
0.0257517
0.0252861
0.0248397
0.0244119
0.0240032
0.0236131
0.0232412
0.0228874
0.0225515
0.0222327
0.0219314
0.0216476
0.0213809
0.0211313
0.020899
0.0206842
0.0204879
0.0203099
0.0201481
0.0200009
0.0198671
0.0197459
0.0196368
0.0195396
0.0194537
0.0193787
0.0193145
0.0192607
0.0192172
0.019184
0.0191611
0.0191483
0.0191456
0.0191531
0.0191709
0.0191994
0.0192387
0.0192892
0.0193511
0.0194254
0.0195132
0.0196148
0.0197322
0.0198685
0.0200271
0.0202161
0.0204561
0.0207265
0.0209803
0.021201
0.0214028
0.021592
0.0217722
0.0219451
0.0221122
0.0222742
0.0224319
0.0225856
0.0227357
0.0228824
0.0230261
0.0231669
0.023305
0.0234404
0.0235735
0.0237042
0.0238326
0.023959
0.0240834
0.0242059
0.0243265
0.0244454
0.0245627
0.0246784
0.0247927
0.0249055
0.025017
0.0251272
0.0252362
0.025344
0.0254508
0.0255566
0.0256614
0.0257652
0.0258683
0.0259704
0.0260719
0.0261726
0.0262726
0.0263719
0.0264707
0.0265688
0.0266664
0.0267635
0.0268601
0.0269562
0.0270519
0.0271471
0.0272419
0.0273363
0.0274304
0.027524
0.0276173
0.0277102
0.0278028
0.027895
0.0279868
0.0280783
0.0281695
0.0282602
0.0283506
0.0284406
0.0285302
0.0286195
0.0287082
0.0287966
0.0288845
0.0289719
0.0290589
0.0291454
0.0292313
0.0293166
0.0294014
0.0294856
0.0295691
0.029652
0.0297342
0.0298157
0.0298964
0.0299763
0.0300555
0.0301338
0.0302112
0.0302877
0.0303632
0.0304378
0.0305113
0.0305838
0.0306552
0.0307254
0.0307945
0.0308624
0.030929
0.0309944
0.0310584
0.031121
0.0311823
0.0312421
0.0313004
0.0313573
0.0314125
0.0314662
0.0315182
0.0315686
0.0316172
0.0316641
0.0317093
0.0317526
0.031794
0.0318335
0.0318712
0.0319068
0.0319405
0.0319721
0.0320017
0.0320291
0.0320545
0.0320777
0.0320987
0.0321175
0.0321341
0.0321484
0.0321604
0.0321702
0.0321776
0.0321827
0.0321854
0.0321858
0.0321838
0.0321794
0.0321726
0.0321634
0.0321518
0.0321378
0.0321214
0.0321026
0.0320814
0.0320578
0.0320317
0.0320032
0.0319721
0.0319384
0.0319019
0.0318623
0.0318193
0.0317721
0.03172
0.0316615
0.0315944
0.0315155
0.0314189
0.0312937
0.0311149
0.0309092
0.0307456
0.0306514
0.0305978
0.0305728
0.0305713
0.0305891
0.0306229
0.0306733
0.030738
0.0308151
0.0309054
0.0310095
0.0311255
0.031252
0.0313929
0.0315463
0.0317093
0.0318877
0.032079
0.0322801
0.0324971
0.0327284
0.0329709
0.0332262
0.0334992
0.0337868
0.0340863
0.0344052
0.0347403
0.0350907
0.0354678
0.0358678
0.036283
0.0367169
0.0371737
0.0376479
0.0381326
0.0386389
0.039164
0.0396994
0.0402558
0.0408301
0.0414142
0.042012
0.0426325
0.0432693
0.0439127
0.0445741
0.045255
0.0459469
0.0466465
0.0473645
0.0480943
0.0488167
0.0495512
0.0502966
0.0510405
0.0517939
0.0525674
0.0533549
0.0541446
0.0549539
0.0557832
0.0566223
0.0574817
0.0583622
0.0592546
0.0601614
0.0610995
0.0620609
0.0630346
0.0640276
0.0650561
0.0661116
0.0671818
0.0682956
0.0694632
0.0706785
0.0719491
0.0732695
0.07462
0.0759968
0.0774223
0.0788822
0.0803526
0.0818399
0.0833602
0.0848977
0.0864226
0.0879505
0.089482
0.090996
0.0924834
0.0939447
0.0953585
0.09671
0.0980097
0.0992426
0.100379
0.101431
0.102393
0.103205
0.103846
0.104334
0.104697
0.104967
0.105146
0.105243
0.105264
0.105217
0.105107
0.104937
0.104712
0.104435
0.104118
0.103767
0.103385
0.102977
0.102562
0.102156
0.101788
0.124796
0.124579
0.1244
0.124224
0.124031
0.123799
0.123523
0.123202
0.122831
0.122397
0.121899
0.121336
0.120702
0.119987
0.119188
0.118287
0.117266
0.116118
0.114807
0.113284
0.111533
0.109598
0.107555
0.10543
0.103245
0.101017
0.0987536
0.0964688
0.0941742
0.0918784
0.0895889
0.0873158
0.0850631
0.0828343
0.0806392
0.0784831
0.0763683
0.0743
0.0722833
0.0703227
0.0684252
0.0665967
0.0648365
0.0631498
0.061548
0.0600334
0.0585929
0.0572163
0.0558929
0.054616
0.0533815
0.0521847
0.0510265
0.0499036
0.0488153
0.0477609
0.0467378
0.0457434
0.0447784
0.0438416
0.0429317
0.0420475
0.0411865
0.0403492
0.0395334
0.0387371
0.0379587
0.0371988
0.0364527
0.0357207
0.0350078
0.0343146
0.0336446
0.0329985
0.0323761
0.0317774
0.0312025
0.0306511
0.0301229
0.029618
0.0291362
0.0286767
0.0282396
0.0278245
0.0274306
0.0270583
0.0267075
0.0263778
0.0260691
0.0257818
0.0255161
0.025273
0.0250523
0.0248516
0.0246689
0.0245029
0.0243524
0.024217
0.0240964
0.0239896
0.0238965
0.0238166
0.0237496
0.0236954
0.023654
0.0236252
0.023609
0.0236053
0.0236142
0.0236359
0.0236708
0.0237191
0.0237811
0.0238573
0.0239489
0.0240571
0.0241823
0.0243271
0.0244952
0.0246905
0.0249225
0.0252139
0.02554
0.0258477
0.0261184
0.0263664
0.0265994
0.0268212
0.0270343
0.0272403
0.0274401
0.0276345
0.027824
0.0280092
0.0281903
0.0283676
0.0285413
0.0287117
0.0288789
0.029043
0.0292044
0.029363
0.029519
0.0296726
0.0298238
0.0299728
0.0301196
0.0302644
0.0304073
0.0305484
0.0306877
0.0308253
0.0309614
0.031096
0.0312292
0.031361
0.0314915
0.0316209
0.0317491
0.0318762
0.0320023
0.0321275
0.0322517
0.0323751
0.0324976
0.0326194
0.0327404
0.0328608
0.0329804
0.0330995
0.0332179
0.0333358
0.0334531
0.0335699
0.0336862
0.033802
0.0339173
0.0340321
0.0341465
0.0342604
0.0343738
0.0344868
0.0345993
0.0347114
0.034823
0.0349341
0.0350448
0.0351549
0.0352645
0.0353736
0.0354822
0.0355901
0.0356975
0.0358043
0.0359104
0.0360159
0.0361207
0.0362247
0.036328
0.0364305
0.0365322
0.036633
0.036733
0.036832
0.03693
0.037027
0.037123
0.0372179
0.0373117
0.0374043
0.0374957
0.0375858
0.0376746
0.0377621
0.0378482
0.0379328
0.0380159
0.0380976
0.0381776
0.038256
0.0383327
0.0384077
0.038481
0.0385524
0.038622
0.0386896
0.0387553
0.038819
0.0388807
0.0389402
0.0389976
0.0390528
0.0391058
0.0391565
0.0392049
0.0392509
0.0392945
0.0393357
0.0393743
0.0394105
0.0394441
0.039475
0.0395034
0.039529
0.039552
0.0395722
0.0395897
0.0396044
0.0396162
0.0396252
0.0396314
0.0396346
0.039635
0.0396325
0.039627
0.0396186
0.0396073
0.039593
0.0395758
0.0395556
0.0395325
0.0395065
0.0394774
0.0394454
0.0394104
0.0393723
0.039331
0.0392862
0.0392377
0.039185
0.0391272
0.0390634
0.0389918
0.0389099
0.0388135
0.0386958
0.0385443
0.0383322
0.0380901
0.0378961
0.0377821
0.0377169
0.0376865
0.0376849
0.037707
0.0377488
0.0378108
0.0378905
0.0379856
0.0380969
0.038225
0.0383677
0.0385237
0.0386972
0.0388858
0.0390868
0.0393063
0.0395416
0.0397896
0.0400566
0.0403411
0.0406397
0.0409541
0.04129
0.0416436
0.0420124
0.0424045
0.0428164
0.0432477
0.0437106
0.0442009
0.0447103
0.0452425
0.045802
0.0463825
0.0469767
0.0475964
0.0482386
0.0488942
0.0495747
0.0502766
0.050991
0.0517222
0.0524801
0.0532575
0.054044
0.0548519
0.0556827
0.0565271
0.0573816
0.0582577
0.0591477
0.0600309
0.0609284
0.0618387
0.062749
0.0636712
0.064617
0.0655798
0.0665468
0.0675373
0.0685516
0.0695788
0.0706304
0.0717072
0.0727994
0.0739098
0.0750571
0.0762322
0.0774235
0.0786385
0.0798952
0.081184
0.0824924
0.0838518
0.0852741
0.086753
0.0882962
0.0898974
0.0915348
0.0932041
0.0949292
0.096694
0.0984722
0.10027
0.102105
0.10396
0.105799
0.10764
0.109484
0.111306
0.113096
0.114853
0.116553
0.11818
0.119745
0.121232
0.122608
0.123886
0.125061
0.126066
0.126879
0.127518
0.128013
0.128397
0.128673
0.128848
0.128931
0.128928
0.128846
0.128688
0.128459
0.128163
0.127815
0.127421
0.126984
0.126514
0.12603
0.125555
0.12512
0.148262
0.148002
0.147782
0.147563
0.147321
0.147035
0.146695
0.146304
0.145853
0.145331
0.144736
0.144065
0.143314
0.142469
0.141529
0.140472
0.139277
0.137934
0.136403
0.134629
0.132592
0.13034
0.127956
0.125472
0.122912
0.120298
0.117637
0.114947
0.112241
0.10953
0.106824
0.104133
0.101464
0.0988214
0.0962163
0.0936557
0.0911425
0.0886833
0.086284
0.0839504
0.0816906
0.0795116
0.0774133
0.0754016
0.0734894
0.0716794
0.0699574
0.0683113
0.0667289
0.0652023
0.0637265
0.0622959
0.0609115
0.0595694
0.0582686
0.0570083
0.0557855
0.0545971
0.0534439
0.0523244
0.0512371
0.0501804
0.0491519
0.0481514
0.0471768
0.0462257
0.0452961
0.0443887
0.0434982
0.042625
0.0417743
0.0409473
0.0401477
0.0393766
0.0386335
0.0379187
0.0372322
0.0365738
0.0359429
0.0353399
0.0347643
0.0342153
0.033693
0.0331969
0.0327262
0.0322812
0.0318618
0.0314677
0.0310986
0.030755
0.030437
0.0301459
0.0298813
0.0296405
0.0294213
0.0292221
0.0290415
0.0288789
0.028734
0.0286057
0.0284937
0.0283976
0.028317
0.0282517
0.0282016
0.0281668
0.0281468
0.028142
0.0281522
0.0281777
0.028219
0.0282763
0.02835
0.0284407
0.0285498
0.0286787
0.028828
0.0290006
0.0292008
0.0294333
0.0297085
0.0300507
0.0304316
0.0307926
0.0311132
0.031408
0.0316853
0.0319495
0.0322035
0.032449
0.0326872
0.0329191
0.0331452
0.0333661
0.0335822
0.0337938
0.0340012
0.0342046
0.0344042
0.0346002
0.0347929
0.0349823
0.0351686
0.035352
0.0355326
0.0357105
0.0358859
0.0360589
0.0362296
0.0363981
0.0365645
0.0367289
0.0368914
0.0370521
0.0372111
0.0373685
0.0375244
0.0376788
0.0378319
0.0379836
0.0381341
0.0382834
0.0384317
0.0385788
0.038725
0.0388702
0.0390145
0.039158
0.0393007
0.0394425
0.0395837
0.0397241
0.0398638
0.0400029
0.0401413
0.0402792
0.0404164
0.040553
0.0406891
0.0408246
0.0409595
0.0410938
0.0412276
0.0413608
0.0414934
0.0416254
0.0417568
0.0418876
0.0420178
0.0421473
0.0422762
0.0424043
0.0425317
0.0426584
0.0427843
0.0429094
0.0430336
0.043157
0.0432794
0.0434009
0.0435214
0.0436409
0.0437593
0.0438766
0.0439927
0.0441076
0.0442213
0.0443337
0.0444447
0.0445543
0.0446625
0.0447691
0.0448743
0.0449778
0.0450796
0.0451798
0.0452781
0.0453747
0.0454693
0.0455621
0.0456528
0.0457415
0.0458281
0.0459125
0.0459948
0.0460748
0.0461524
0.0462277
0.0463005
0.0463709
0.0464387
0.0465039
0.0465665
0.0466264
0.0466835
0.0467379
0.0467894
0.046838
0.0468836
0.0469263
0.0469659
0.0470024
0.0470358
0.0470661
0.0470931
0.0471169
0.0471375
0.0471547
0.0471686
0.0471791
0.0471863
0.04719
0.0471903
0.0471872
0.0471806
0.0471706
0.0471571
0.0471401
0.0471196
0.0470956
0.0470682
0.0470372
0.0470028
0.0469648
0.0469233
0.0468782
0.0468292
0.0467762
0.0467187
0.0466563
0.046588
0.0465125
0.046428
0.0463313
0.0462177
0.0460794
0.0459025
0.0456593
0.0453837
0.0451613
0.0450283
0.0449518
0.0449163
0.0449147
0.0449411
0.0449911
0.0450649
0.0451598
0.045273
0.0454055
0.0455578
0.0457276
0.0459134
0.0461196
0.0463438
0.0465831
0.0468441
0.0471237
0.0474189
0.0477364
0.0480744
0.0484294
0.0488035
0.0492025
0.0496225
0.050061
0.0505266
0.0510157
0.0515281
0.052077
0.0526575
0.0532609
0.0538912
0.0545529
0.0552391
0.0559422
0.0566747
0.0574331
0.0582081
0.0590115
0.0598396
0.060683
0.0615464
0.0624401
0.0633562
0.064284
0.0652365
0.0662151
0.0672099
0.0682172
0.069249
0.0702968
0.0713388
0.0723974
0.0734708
0.0745458
0.0756352
0.0767517
0.0778878
0.0790309
0.0802009
0.0813984
0.0826121
0.0838542
0.0851254
0.0864156
0.0877279
0.0890821
0.0904685
0.0918749
0.0933095
0.0947912
0.0963098
0.0978527
0.0994531
0.101124
0.10286
0.104667
0.10654
0.108454
0.110405
0.112418
0.114475
0.116548
0.118643
0.120779
0.122934
0.125073
0.127212
0.129351
0.131466
0.133541
0.135577
0.137549
0.139439
0.141258
0.142988
0.144598
0.1461
0.147488
0.148695
0.149695
0.150506
0.151159
0.151684
0.152086
0.15237
0.152543
0.152614
0.152588
0.152468
0.152261
0.15197
0.151611
0.151193
0.15072
0.150203
0.149665
0.149129
0.148637
0.171876
0.171575
0.171314
0.171049
0.170757
0.170412
0.170006
0.169541
0.169009
0.168397
0.167703
0.166925
0.166058
0.165088
0.164011
0.162803
0.161442
0.159914
0.158174
0.156162
0.153854
0.151301
0.148591
0.145763
0.142841
0.13985
0.136801
0.133713
0.130601
0.127479
0.124357
0.12125
0.118164
0.115106
0.112089
0.109121
0.106206
0.103352
0.100565
0.0978535
0.0952261
0.0926912
0.090249
0.0879065
0.0856777
0.0835661
0.0815561
0.0796344
0.077787
0.0760049
0.0742821
0.0726125
0.0709965
0.0694301
0.067912
0.066441
0.0650139
0.0636272
0.0622815
0.0609751
0.0597064
0.0584735
0.0572736
0.0561064
0.0549695
0.0538601
0.0527762
0.0517181
0.0506802
0.049663
0.0486719
0.0477084
0.0467767
0.0458778
0.0450117
0.0441784
0.0433779
0.0426102
0.0418744
0.041171
0.0404996
0.0398592
0.0392498
0.0386709
0.0381216
0.0376022
0.0371127
0.0366525
0.0362216
0.0358202
0.0354487
0.0351082
0.0347984
0.0345164
0.0342595
0.034026
0.0338143
0.0336238
0.0334538
0.0333033
0.0331718
0.0330589
0.0329641
0.0328872
0.0328282
0.0327868
0.032763
0.0327567
0.0327681
0.0327974
0.032845
0.0329113
0.032997
0.0331024
0.0332292
0.0333791
0.0335528