/*--------------------------------*- C++ -*----------------------------------*\
| =========                 |                                                 |
| \\      /  F ield         | OpenFOAM: The Open Source CFD Toolbox           |
|  \\    /   O peration     | Version:  v2006                                 |
|   \\  /    A nd           | Website:  www.openfoam.com                      |
|    \\/     M anipulation  |                                                 |
\*---------------------------------------------------------------------------*/
FoamFile
{
    version     2.0;
    format      ascii;
    class       volVectorField;
    location    "10";
    object      U;
}
// * * * * * * * * * * * * * * * * * * * * * * * * * * * * * * * * * * * * * //

dimensions      [0 1 -1 0 0 0 0];


internalField   nonuniform List<vector> 
80000
(
(0.00849116 1.21179e-05 0)
(0.00846256 2.64669e-05 -3.13672e-24)
(0.0084556 2.89207e-05 0)
(0.00846688 2.17459e-05 4.08783e-24)
(0.0084846 1.76936e-06 -1.01707e-26)
(0.00849838 -2.93599e-05 1.01709e-26)
(0.00850321 -7.20339e-05 1.08407e-25)
(0.00849453 -0.000124831 2.19421e-25)
(0.0084691 -0.000189869 5.22492e-25)
(0.00841471 -0.000264902 1.4885e-24)
(0.00833261 -0.000348934 0)
(0.00821499 -0.000439896 9.04192e-22)
(0.00806392 -0.000537109 1.00353e-21)
(0.00786776 -0.000637436 2.09803e-24)
(0.00763377 -0.00073776 -1.06987e-24)
(0.0073546 -0.000837077 2.12082e-21)
(0.00702801 -0.000928666 -8.52875e-25)
(0.00666359 -0.00101084 1.57064e-21)
(0.00625659 -0.00108047 -6.38444e-25)
(0.00580682 -0.00113133 -3.55331e-23)
(0.00532294 -0.00115593 -1.04331e-21)
(0.0048272 -0.00115126 -1.07589e-24)
(0.00434655 -0.00112337 1.0754e-24)
(0.00388462 -0.00107791 0)
(0.00344753 -0.00101789 3.16128e-24)
(0.00304171 -0.000948834 -1.45252e-20)
(0.00266414 -0.000872766 4.74121e-24)
(0.00231875 -0.000793265 2.10915e-20)
(0.00200301 -0.000712245 2.44727e-20)
(0.00171664 -0.00063189 -2.78633e-20)
(0.00145681 -0.000553175 -3.12807e-20)
(0.00122283 -0.000477475 -4.42848e-24)
(0.00101161 -0.000405311 3.80152e-20)
(0.000821175 -0.000336979 0)
(0.000650282 -0.000272969 -8.91636e-20)
(0.000496602 -0.000213342 0)
(0.000358454 -0.000158072 4.00837e-23)
(0.000234438 -0.000107161 5.41158e-20)
(0.00012307 -6.04884e-05 6.81709e-24)
(2.31371e-05 -1.79582e-05 6.02552e-20)
(-6.6504e-05 2.05796e-05 7.80363e-23)
(-0.000146821 5.52311e-05 -7.96308e-23)
(-0.000219046 8.63566e-05 6.9218e-20)
(-0.000283876 0.000113978 -3.58221e-23)
(-0.000342222 0.000138402 3.6053e-23)
(-0.000395099 0.000160008 -8.42348e-23)
(-0.000443265 0.000179386 -1.61341e-19)
(-0.000487356 0.000196662 -4.1295e-23)
(-0.000527757 0.00021238 8.41741e-23)
(-0.000565076 0.0002265 4.4954e-23)
(-0.000599408 0.000239454 -1.78769e-22)
(-0.000631302 0.000251185 -9.40347e-20)
(-0.000660823 0.000261921 9.67415e-20)
(-0.000688424 0.000271811 -3.93042e-23)
(-0.000714055 0.000280852 -1.01815e-19)
(-0.00073818 0.000289254 -2.0856e-19)
(-0.000760732 0.00029707 0)
(-0.000781819 0.000304332 1.09162e-19)
(-0.00080172 0.000311051 -2.23174e-19)
(-0.000820468 0.000317418 -1.12178e-22)
(-0.000838178 0.000323336 -1.16243e-19)
(-0.000854978 0.000329025 -1.18691e-19)
(-0.000870754 0.000334346 2.41989e-19)
(-0.000885858 0.000339432 2.42456e-22)
(-0.000900116 0.000344323 -2.43641e-22)
(-0.000913671 0.000349004 1.2806e-19)
(-0.000926267 0.000353413 1.29792e-19)
(-0.00093854 0.000357611 0)
(-0.000949566 0.00036167 -3.06861e-23)
(-0.000959708 0.000364943 1.36706e-19)
(-0.000969481 0.00036793 1.38635e-19)
(-0.000978464 0.000370207 1.41359e-19)
(-0.000987351 0.000372017 -1.43289e-19)
(-0.000995906 0.000373358 1.45795e-19)
(-0.0010042 0.000374219 -2.87114e-22)
(-0.00101225 0.000374601 -1.50263e-19)
(-0.00102012 0.000374496 -1.51883e-19)
(-0.00102786 0.000373945 3.08809e-19)
(-0.00103535 0.000372893 0)
(-0.00104281 0.000371344 1.58914e-19)
(-0.0010502 0.000369368 0)
(-0.00105742 0.000366888 -3.20546e-22)
(-0.00106463 0.000363917 -2.70935e-24)
(-0.00107182 0.000360505 -2.57001e-23)
(-0.00107882 0.000356568 1.70209e-19)
(-0.0010859 0.000352103 1.72795e-19)
(-0.00109299 0.00034718 -1.7479e-19)
(-0.00110008 0.000341746 3.47139e-22)
(-0.0011072 0.000335809 1.78998e-19)
(-0.00111449 0.000329382 -3.56113e-22)
(-0.00112185 0.000322473 -2.63264e-24)
(-0.0011297 0.00031511 -1.85859e-19)
(-0.00113809 0.000307614 -1.88457e-19)
(-0.00114664 0.000299949 3.73839e-22)
(-0.00115526 0.000292128 -3.86327e-19)
(-0.00116394 0.000284114 -3.82513e-22)
(-0.00117257 0.000275932 -9.79327e-20)
(-0.00118119 0.000267484 -4.03144e-24)
(-0.00118994 0.000258898 1.00474e-19)
(-0.00119857 0.000250101 4.05513e-22)
(-0.00120726 0.00024111 -8.04601e-22)
(-0.0012159 0.000231929 -1.03639e-19)
(-0.00122454 0.000222543 -2.10134e-19)
(-0.00123313 0.00021296 1.06109e-19)
(-0.00124172 0.000203154 -1.06681e-19)
(-0.00125031 0.000193174 -1.08117e-19)
(-0.00125878 0.000182987 2.73994e-24)
(-0.00126722 0.000172591 -8.60012e-22)
(-0.00127549 0.000162007 -1.10613e-19)
(-0.00128362 0.000151182 1.12428e-19)
(-0.00129164 0.000140176 -5.6464e-20)
(-0.00129937 0.000128959 5.64811e-20)
(-0.00130694 0.000117553 5.78325e-20)
(-0.00131411 0.000105965 -4.50955e-22)
(-0.00132099 9.41057e-05 0)
(-0.00132786 8.2154e-05 5.86947e-20)
(-0.00133412 7.00748e-05 5.54741e-27)
(-0.00134032 5.77324e-05 0)
(-0.00134663 4.52967e-05 2.99724e-20)
(-0.00135352 3.28152e-05 -4.73019e-22)
(-0.00136109 2.0125e-05 -1.42364e-20)
(-0.00137476 7.67109e-06 3.03095e-24)
(-0.0013961 8.5997e-07 -4.8985e-22)
(-0.001409 6.2468e-07 0)
(-0.00141208 5.57869e-07 0)
(-0.00141306 4.38224e-07 0)
(-0.00141049 3.93489e-07 0)
(-0.00140597 3.2757e-07 0)
(-0.00139923 2.82655e-07 0)
(-0.00139074 2.33314e-07 -5.05104e-22)
(-0.00138051 1.91028e-07 5.05082e-22)
(-0.00136872 1.48622e-07 -5.1181e-22)
(-0.00135543 1.09188e-07 5.11813e-22)
(-0.00134072 7.05768e-08 0)
(-0.00132466 3.36069e-08 5.21886e-22)
(-0.00130731 -2.43694e-09 -1.04702e-21)
(-0.00128872 -3.73096e-08 5.25274e-22)
(-0.00126894 -7.12798e-08 0)
(-0.00124802 -1.043e-07 5.35428e-22)
(-0.00122599 -1.36496e-07 -5.35434e-22)
(-0.00120291 -1.67861e-07 0)
(-0.0011788 -1.98465e-07 0)
(-0.00115371 -2.28274e-07 5.48975e-22)
(-0.00112767 -2.57344e-07 -5.48963e-22)
(-0.00110072 -2.85647e-07 0)
(-0.0010729 -3.13229e-07 0)
(-0.00104423 -3.40104e-07 5.6245e-22)
(-0.00101474 -3.66244e-07 -5.62473e-22)
(-0.000984479 -3.91723e-07 0)
(-0.000953469 -4.16433e-07 5.72527e-22)
(-0.000921746 -4.40461e-07 -5.72542e-22)
(-0.00088934 -4.63785e-07 0)
(-0.00085628 -4.86375e-07 -2.91243e-22)
(-0.000822599 -5.08288e-07 -1.6473e-24)
(-0.000788324 -5.29508e-07 2.92853e-22)
(-0.000753487 -5.50014e-07 0)
(-0.00071812 -5.69811e-07 -2.97786e-22)
(-0.000682251 -5.88866e-07 -1.61889e-24)
(-0.000645911 -6.07232e-07 -1.61097e-24)
(-0.000609125 -6.24908e-07 3.01002e-22)
(-0.000571923 -6.41874e-07 -6.08437e-22)
(-0.000534334 -6.58147e-07 6.0836e-22)
(-0.000496388 -6.73692e-07 0)
(-0.000458115 -6.88531e-07 6.17924e-22)
(-0.00041954 -7.0264e-07 -6.17885e-22)
(-0.00038069 -7.16066e-07 3.12052e-22)
(-0.000341595 -7.2881e-07 -3.1206e-22)
(-0.000302278 -7.40867e-07 3.1509e-22)
(-0.000262768 -7.52172e-07 -3.15117e-22)
(-0.000223095 -7.62822e-07 0)
(-0.000183284 -7.72797e-07 0)
(-0.00014336 -7.82043e-07 0)
(-0.000103345 -7.90659e-07 -3.22579e-22)
(-6.32659e-05 -7.986e-07 3.22606e-22)
(-2.3148e-05 -8.05908e-07 -3.25483e-22)
(1.69859e-05 -8.12567e-07 6.52477e-22)
(5.71109e-05 -8.18631e-07 -3.26965e-22)
(9.72074e-05 -8.24104e-07 0)
(0.000137255 -8.28984e-07 -1.65607e-22)
(0.000177234 -8.33286e-07 3.31909e-22)
(0.000217123 -8.37012e-07 -1.66293e-22)
(0.000256901 -8.40164e-07 -1.67679e-22)
(0.000296544 -8.42737e-07 -6.80445e-25)
(0.000336035 -8.44759e-07 1.68372e-22)
(0.000375354 -8.46222e-07 0)
(0.000414487 -8.47185e-07 -1.70353e-22)
(0.000453411 -8.47607e-07 1.7037e-22)
(0.000492109 -8.4752e-07 0)
(0.000530564 -8.46932e-07 0)
(0.000568755 -8.45828e-07 8.64831e-23)
(0.000606666 -8.4425e-07 3.17349e-25)
(0.000644284 -8.42195e-07 -8.67998e-23)
(0.000681593 -8.39702e-07 8.74217e-23)
(0.000718578 -8.36756e-07 3.09009e-25)
(0.000755223 -8.33378e-07 -8.77313e-23)
(0.000791511 -8.29564e-07 0)
(0.000827429 -8.25332e-07 0)
(0.000862965 -8.20697e-07 0)
(0.000898108 -8.15696e-07 0)
(0.000932843 -8.10313e-07 0)
(0.000967155 -8.04539e-07 0)
(0.00100104 -7.98448e-07 0)
(0.00103447 -7.91992e-07 0)
(0.00106745 -7.85189e-07 0)
(0.00109997 -7.78081e-07 0)
(0.00113201 -7.70664e-07 9.12331e-23)
(0.00116356 -7.6296e-07 -9.12316e-23)
(0.00119462 -7.54964e-07 0)
(0.00122517 -7.4669e-07 -9.20573e-23)
(0.00125521 -7.3814e-07 -2.6912e-25)
(0.00128472 -7.29347e-07 -2.66959e-25)
(0.00131371 -7.20309e-07 2.78303e-22)
(0.00134216 -7.11066e-07 -1.85695e-22)
(0.00137007 -7.01577e-07 0)
(0.00139742 -6.91879e-07 1.8726e-22)
(0.00142422 -6.81992e-07 -1.87282e-22)
(0.00145045 -6.71878e-07 1.88311e-22)
(0.00147611 -6.61613e-07 -1.88303e-22)
(0.00150119 -6.51163e-07 0)
(0.00152569 -6.4057e-07 -1.89795e-22)
(0.00154961 -6.2981e-07 3.80109e-22)
(0.00157293 -6.18903e-07 -1.90304e-22)
(0.00159565 -6.07857e-07 0)
(0.00161778 -5.96683e-07 3.83549e-22)
(0.0016393 -5.85393e-07 -7.68048e-22)
(0.00166021 -5.74009e-07 3.84466e-22)
(0.00168051 -5.62505e-07 0)
(0.00170019 -5.50901e-07 0)
(0.00171925 -5.39221e-07 0)
(0.00173769 -5.27426e-07 0)
(0.0017555 -5.15582e-07 0)
(0.00177269 -5.03655e-07 3.9112e-22)
(0.00178925 -4.91686e-07 -3.91086e-22)
(0.00180517 -4.79645e-07 -3.92981e-22)
(0.00182046 -4.67539e-07 3.9297e-22)
(0.00183512 -4.55402e-07 -3.94798e-22)
(0.00184913 -4.43205e-07 3.94823e-22)
(0.0018625 -4.30968e-07 0)
(0.00187523 -4.18717e-07 0)
(0.00188732 -4.06421e-07 0)
(0.00189875 -3.94089e-07 3.99305e-22)
(0.00190954 -3.81735e-07 8.96232e-25)
(0.00191968 -3.69337e-07 8.9386e-25)
(0.00192917 -3.56926e-07 -4.01114e-22)
(0.00193801 -3.44482e-07 0)
(0.00194619 -3.32027e-07 4.0374e-22)
(0.00195371 -3.19539e-07 -6.37318e-17)
(0.00196057 -3.07003e-07 -6.41746e-17)
(0.00196677 -2.94443e-07 8.11105e-22)
(0.0019723 -2.8183e-07 -8.14677e-22)
(0.00197716 -2.69168e-07 -1.76321e-24)
(0.00198135 -2.56451e-07 8.16305e-22)
(0.00198487 -2.43656e-07 6.45471e-17)
(0.0019877 -2.30741e-07 6.50312e-17)
(0.00198984 -2.17708e-07 -8.23484e-22)
(0.00199129 -2.04456e-07 -1.75963e-24)
(0.00199203 -1.90992e-07 8.25188e-22)
(0.00199204 -1.77068e-07 8.28729e-22)
(0.00199132 -1.62865e-07 -1.65901e-21)
(0.00198986 -1.48679e-07 1.66276e-21)
(0.00198764 -1.34368e-07 -8.32269e-22)
(0.00198466 -1.19959e-07 0)
(0.00198091 -1.05469e-07 0)
(0.00197639 -9.07377e-08 -8.39348e-22)
(0.00197107 -7.59527e-08 8.39234e-22)
(0.00196496 -6.05821e-08 0)
(0.00195803 -4.53753e-08 8.44671e-22)
(0.00195024 -2.85969e-08 1.79295e-24)
(0.0019416 -1.30288e-08 -8.46515e-22)
(0.00193201 7.11506e-09 8.50047e-22)
(0.00192152 2.2109e-08 -8.50085e-22)
(0.00190984 5.13817e-08 -6.71419e-17)
(0.00189725 6.16595e-08 -6.77746e-17)
(0.00188286 1.18319e-07 0)
(0.00186764 1.09838e-07 0)
(0.00184873 2.57774e-07 8.61041e-22)
(0.00182941 2.33112e-07 -1.7237e-21)
(0.00179836 5.80081e-07 -8.8603e-22)
(0.00175759 9.24202e-06 8.44148e-22)
(0.00173388 2.50934e-05 2.8641e-20)
(0.00172383 4.13366e-05 -5.4995e-26)
(0.00171951 5.74385e-05 5.57731e-20)
(0.00172079 7.38007e-05 5.58711e-20)
(0.00172645 9.04328e-05 5.50904e-20)
(0.00173632 0.00010725 -1.9225e-24)
(0.00174889 0.000124498 8.75503e-22)
(0.00176548 0.000142396 -1.11416e-19)
(0.00178511 0.00016059 1.11485e-19)
(0.00180715 0.000179436 0)
(0.0018322 0.000199066 0)
(0.0018602 0.000219487 -2.24873e-19)
(0.00189124 0.000240496 0)
(0.00192356 0.000262381 0)
(0.00195968 0.00028565 -8.78018e-22)
(0.00199896 0.00030939 2.25229e-19)
(0.00203865 0.000334205 -7.29805e-24)
(0.00208277 0.000360769 0)
(0.0021299 0.000387852 0)
(0.00217726 0.000416227 2.22147e-19)
(0.0022294 0.000446601 4.46016e-19)
(0.00228397 0.000477809 -2.22905e-19)
(0.00234099 0.000510486 -2.20624e-19)
(0.00239951 0.00054475 -4.40814e-19)
(0.00246279 0.000581447 -8.59809e-22)
(0.00252952 0.00061896 -4.38863e-19)
(0.00259661 0.000658425 -8.85729e-22)
(0.0026693 0.000700572 4.36574e-19)
(0.00274608 0.000744056 3.60521e-23)
(0.00282284 0.000789462 -4.32057e-19)
(0.00290797 0.00083879 4.30058e-19)
(0.00299853 0.00088861 0)
(0.00309099 0.000939892 0)
(0.00318735 0.00099303 0)
(0.00328924 0.00104861 0)
(0.00339706 0.00110447 0)
(0.00350302 0.00116092 7.52481e-22)
(0.0036154 0.00122059 4.13272e-19)
(0.00373482 0.00128065 0)
(0.00385065 0.00134019 0)
(0.00397443 0.00140354 0)
(0.00410222 0.0014658 -4.03426e-19)
(0.00423049 0.00152852 3.99861e-19)
(0.00435931 0.00159167 3.99123e-19)
(0.00449433 0.00165771 -1.54187e-21)
(0.00463533 0.00172186 3.93176e-19)
(0.00477041 0.00178483 -7.60026e-22)
(0.00491123 0.00184993 3.85402e-19)
(0.00505568 0.00191444 -3.82803e-19)
(0.00520147 0.0019769 -7.56154e-19)
(0.00534348 0.00203788 -3.76109e-19)
(0.00548737 0.00209994 -3.72696e-19)
(0.00563995 0.00215988 7.21625e-22)
(0.00577393 0.00221314 5.95891e-22)
(0.00591301 0.00227254 -3.62015e-19)
(0.00605435 0.00232786 -6.96448e-22)
(0.00618525 0.00238256 -3.53149e-19)
(0.00631611 0.00243878 -3.49827e-19)
(0.00644872 0.00249841 3.45776e-19)
(0.00658784 0.00255662 3.41698e-19)
(0.00671373 0.00261336 3.3753e-19)
(0.00684578 0.00267572 -3.24106e-22)
(0.00698422 0.00273865 3.22384e-22)
(0.00711511 0.00280037 3.15295e-22)
(0.00725209 0.00286763 -3.1988e-19)
(0.00739249 0.00293479 -3.06038e-22)
(0.00753413 0.00300373 6.05654e-22)
(0.00767011 0.00307372 -6.10322e-19)
(0.00781992 0.00315262 0)
(0.00797435 0.00322929 0)
(0.00812798 0.00330973 2.80948e-22)
(0.0082829 0.00339286 -2.84163e-19)
(0.00845038 0.00348616 -2.78724e-19)
(0.00863278 0.00357954 2.72652e-19)
(0.00880658 0.00367644 2.66823e-19)
(0.0090011 0.00378493 1.26173e-22)
(0.00921874 0.00390032 -2.54435e-19)
(0.00944962 0.00401659 2.47415e-19)
(0.00970338 0.0041388 -1.29274e-22)
(0.00997753 0.0042572 0)
(0.0102634 0.00437162 0)
(0.0105487 0.00447928 2.20081e-19)
(0.0108602 0.00459186 2.61483e-22)
(0.0111879 0.00469016 2.54404e-23)
(0.0115116 0.00477885 0)
(0.0118401 0.00485823 1.88995e-19)
(0.0121843 0.00493411 3.21489e-22)
(0.0125438 0.00499082 9.75958e-24)
(0.0128862 0.00503002 -1.63518e-19)
(0.0132381 0.00505731 0)
(0.0135979 0.00506682 0)
(0.0139479 0.00504844 -1.35562e-19)
(0.0142865 0.00500923 0)
(0.014623 0.00494133 0)
(0.0149348 0.00483929 1.0702e-19)
(0.0152109 0.00470199 -2.25249e-23)
(0.0154599 0.00453541 -2.17046e-22)
(0.0156774 0.0043246 0)
(0.0158158 0.00407004 -6.77231e-20)
(0.0158953 0.00378261 -1.16762e-19)
(0.0159094 0.00345354 -4.93807e-20)
(0.015801 0.00308111 0)
(0.0155621 0.00269627 0)
(0.0152239 0.00231967 1.28099e-20)
(0.0148062 0.00196779 5.51222e-24)
(0.0143518 0.00164608 7.12252e-21)
(0.0138618 0.0013535 2.08976e-23)
(0.0133551 0.00109438 0)
(0.0128437 0.000867267 0)
(0.0123366 0.000672215 -1.30638e-22)
(0.0118462 0.000506069 9.55927e-23)
(0.0113714 0.000366916 -2.374e-22)
(0.0109245 0.000252905 1.6625e-22)
(0.0105016 0.000161309 -5.42552e-24)
(0.0101145 9.16034e-05 1.00321e-22)
(0.00976246 3.88061e-05 4.94119e-23)
(0.00944615 2.32618e-06 2.76145e-24)
(0.00916567 -1.98937e-05 -1.8533e-23)
(0.0089262 -2.74111e-05 -1.37401e-23)
(0.00873228 -2.46026e-05 2.66504e-25)
(0.0085785 -9.7475e-06 4.56963e-24)
(0.0256242 4.95937e-05 0)
(0.0255177 8.45627e-05 9.63252e-24)
(0.0254794 8.77168e-05 -4.76134e-26)
(0.0254956 6.33517e-05 -6.09535e-24)
(0.0255325 2.95855e-06 3.23871e-25)
(0.0255606 -8.95378e-05 0)
(0.0255641 -0.000215415 0)
(0.0255292 -0.000370963 1.08381e-22)
(0.0254454 -0.000561471 -7.79848e-25)
(0.0252795 -0.000780978 9.16073e-22)
(0.0250329 -0.00102668 2.11604e-25)
(0.0246839 -0.00129271 -6.79625e-22)
(0.0242365 -0.00157666 -1.52107e-21)
(0.0236599 -0.0018698 1.58205e-24)
(0.0229713 -0.0021633 -1.62492e-26)
(0.0221518 -0.00245338 -3.20697e-21)
(0.0211949 -0.00272196 1.24094e-24)
(0.0201251 -0.00296333 2.21264e-21)
(0.0189311 -0.00316795 -9.14277e-25)
(0.0176135 -0.00331878 -1.16653e-22)
(0.0161967 -0.00339562 8.15993e-22)
(0.0147412 -0.00338992 1.7072e-24)
(0.0133213 -0.00331675 -8.81838e-21)
(0.0119517 -0.00319114 0)
(0.0106509 -0.00302225 0)
(0.00943776 -0.00282529 -7.92709e-23)
(0.00830626 -0.00260663 -7.17043e-24)
(0.00726713 -0.00237659 -3.18897e-20)
(0.00631456 -0.00214089 3.69808e-20)
(0.00544782 -0.00190601 0)
(0.00465953 -0.00167507 -1.21325e-23)
(0.00394748 -0.00145215 1.21575e-23)
(0.00330332 -0.00123894 0)
(0.00272132 -0.00103657 -3.94968e-24)
(0.00219768 -0.000846471 1.12452e-22)
(0.0017259 -0.000668957 -2.13208e-24)
(0.00130098 -0.000504071 1.21672e-22)
(0.000918741 -0.000351869 -1.63422e-19)
(0.000574864 -0.000212063 -1.07982e-23)
(0.000265704 -8.44186e-05 -9.1069e-20)
(-1.21296e-05 3.14745e-05 9.56255e-20)
(-0.000261533 0.000135901 -1.00098e-19)
(-0.000486119 0.000229884 -1.04526e-19)
(-0.000688108 0.000313485 0)
(-0.000870086 0.000387609 0)
(-0.001035 0.000453281 -2.35014e-19)
(-0.00118522 0.000512238 1.21861e-19)
(-0.00132273 0.000564842 1.25786e-19)
(-0.00144878 0.000612731 -1.29953e-19)
(-0.00156521 0.00065578 0)
(-0.0016724 0.000695292 1.36324e-22)
(-0.001772 0.000731114 2.83859e-19)
(-0.00186425 0.000763928 0)
(-0.00195048 0.000794153 -1.49769e-19)
(-0.00203066 0.000821831 0)
(-0.00210604 0.000847539 1.57146e-19)
(-0.00217658 0.000871451 1.55787e-22)
(-0.00224263 0.000893702 -3.29386e-19)
(-0.00230492 0.00091431 2.69013e-22)
(-0.00236364 0.000933821 0)
(-0.00241911 0.000951983 1.75317e-19)
(-0.00247171 0.000969403 -1.79003e-19)
(-0.00252123 0.000985735 4.36386e-22)
(-0.00256852 0.00100133 -3.60408e-22)
(-0.00261324 0.0010163 1.88804e-19)
(-0.00265575 0.00103062 -1.9229e-19)
(-0.00269544 0.00104415 -1.96016e-19)
(-0.00273387 0.00105697 0)
(-0.00276884 0.00106935 -2.02658e-19)
(-0.00280121 0.00107955 2.0587e-19)
(-0.00283226 0.00108883 4.10866e-22)
(-0.00286108 0.00109609 -8.30496e-23)
(-0.00288934 0.00110194 4.31232e-19)
(-0.00291656 0.00110636 -4.38304e-19)
(-0.00294292 0.00110935 -2.22419e-19)
(-0.00296849 0.0011109 2.25749e-19)
(-0.00299342 0.00111099 4.5828e-19)
(-0.00301787 0.00110972 -2.32491e-19)
(-0.00304159 0.00110697 2.35784e-19)
(-0.00306506 0.00110273 -4.69216e-22)
(-0.00308826 0.00109717 -2.42025e-19)
(-0.00311095 0.00109012 -4.8238e-22)
(-0.00313351 0.0010816 4.84846e-22)
(-0.00315592 0.00107172 -2.53223e-19)
(-0.00317783 0.0010603 -2.55653e-19)
(-0.00319982 0.00104729 -2.59512e-19)
(-0.00322181 0.00103289 0)
(-0.00324377 0.00101697 -2.65773e-19)
(-0.00326576 0.000999548 2.6919e-19)
(-0.00328817 0.000980661 0)
(-0.0033108 0.00096036 0)
(-0.00333466 0.000938721 5.4889e-22)
(-0.0033599 0.000916571 2.82863e-19)
(-0.00338558 0.00089386 0)
(-0.00341145 0.000870655 2.90153e-19)
(-0.00343748 0.000846853 5.75031e-22)
(-0.00346333 0.000822535 -5.77576e-22)
(-0.00348913 0.000797448 -1.49982e-19)
(-0.00351519 0.00077191 0)
(-0.00354095 0.000745745 1.21873e-21)
(-0.00356679 0.000718996 8.04444e-24)
(-0.00359247 0.000691669 1.55128e-19)
(-0.0036181 0.000663728 1.58513e-19)
(-0.00364357 0.000635194 -1.60055e-19)
(-0.00366894 0.000605997 -6.17877e-22)
(-0.00369429 0.00057626 -1.6181e-19)
(-0.00371924 0.000545898 1.64552e-19)
(-0.00374403 0.000514908 -6.43955e-22)
(-0.00376832 0.000483339 0)
(-0.00379213 0.000451058 6.5164e-22)
(-0.00381552 0.000418215 -6.60595e-22)
(-0.00383808 0.000384737 -1.71024e-19)
(-0.00386004 0.00035068 0)
(-0.00388085 0.000316072 -8.61857e-20)
(-0.00390079 0.000280706 -8.75181e-20)
(-0.00392045 0.000245023 -6.87184e-22)
(-0.00393851 0.00020897 4.44085e-20)
(-0.00395632 0.000172246 7.00854e-22)
(-0.00397437 0.000135334 -4.57209e-20)
(-0.00399407 9.84226e-05 -7.10491e-22)
(-0.00401608 6.15599e-05 2.35218e-20)
(-0.00405298 2.62963e-05 0)
(-0.00410726 5.97244e-06 0)
(-0.00414065 2.77141e-06 0)
(-0.00414923 9.29642e-07 0)
(-0.00415066 -3.56323e-07 0)
(-0.00414202 -1.30505e-06 0)
(-0.00412736 -2.15426e-06 7.48599e-22)
(-0.0041062 -2.88565e-06 -7.48687e-22)
(-0.00407982 -3.56603e-06 -7.58653e-22)
(-0.00404828 -4.19008e-06 7.58621e-22)
(-0.00401211 -4.77949e-06 -7.6872e-22)
(-0.00397148 -5.33472e-06 -5.04065e-24)
(-0.00392667 -5.86391e-06 1.55249e-21)
(-0.00387785 -6.3685e-06 -7.78789e-22)
(-0.00382521 -6.85211e-06 7.88834e-22)
(-0.00376889 -7.3159e-06 5.07872e-24)
(-0.00370907 -7.76188e-06 -7.94034e-22)
(-0.00364586 -8.19086e-06 0)
(-0.00357939 -8.60394e-06 0)
(-0.00350978 -9.00181e-06 0)
(-0.00343715 -9.38512e-06 -8.19357e-22)
(-0.00336161 -9.75423e-06 -5.08172e-24)
(-0.00328327 -1.01098e-05 -5.07649e-24)
(-0.00320224 -1.04519e-05 8.29663e-22)
(-0.00311862 -1.07811e-05 8.39795e-22)
(-0.0030325 -1.10976e-05 -8.39734e-22)
(-0.00294398 -1.14015e-05 -8.49865e-22)
(-0.00285316 -1.16932e-05 -5.02841e-24)
(-0.00276014 -1.19724e-05 8.54912e-22)
(-0.00266501 -1.22399e-05 0)
(-0.00256787 -1.24955e-05 8.69898e-22)
(-0.0024688 -1.27391e-05 -8.69925e-22)
(-0.0023679 -1.29713e-05 -8.79842e-22)
(-0.00226525 -1.3192e-05 1.32207e-21)
(-0.00216094 -1.34012e-05 2.45347e-24)
(-0.00205507 -1.3599e-05 -4.44837e-22)
(-0.00194773 -1.37855e-05 -4.49739e-22)
(-0.001839 -1.39608e-05 -2.41932e-24)
(-0.00172895 -1.41252e-05 9.06641e-22)
(-0.00161769 -1.42786e-05 -9.11505e-22)
(-0.00150528 -1.4421e-05 4.56895e-22)
(-0.00139183 -1.45526e-05 4.61708e-22)
(-0.00127742 -1.46735e-05 -4.61726e-22)
(-0.00116212 -1.47837e-05 0)
(-0.00104602 -1.48834e-05 0)
(-0.000929198 -1.49728e-05 4.71051e-22)
(-0.000811732 -1.50518e-05 -9.44293e-22)
(-0.000693704 -1.51204e-05 4.73337e-22)
(-0.000575202 -1.5179e-05 0)
(-0.000456299 -1.52278e-05 0)
(-0.000337071 -1.52667e-05 4.82387e-22)
(-0.000217583 -1.5296e-05 -4.82341e-22)
(-9.79158e-05 -1.53157e-05 0)
(2.18584e-05 -1.53265e-05 0)
(0.000141671 -1.53286e-05 4.91135e-22)
(0.00026145 -1.53225e-05 -4.91141e-22)
(0.000381136 -1.53083e-05 2.47715e-22)
(0.000500669 -1.52859e-05 -2.47703e-22)
(0.00061999 -1.52555e-05 0)
(0.000739037 -1.52171e-05 0)
(0.000857745 -1.5171e-05 2.51868e-22)
(0.000976049 -1.51171e-05 -2.51875e-22)
(0.00109389 -1.50559e-05 0)
(0.00121122 -1.49873e-05 2.54915e-22)
(0.00132798 -1.49116e-05 -5.10764e-22)
(0.00144413 -1.48289e-05 2.55904e-22)
(0.00155959 -1.47394e-05 0)
(0.00167432 -1.46432e-05 1.29416e-22)
(0.00178827 -1.45406e-05 -1.29419e-22)
(0.00190138 -1.44316e-05 0)
(0.00201361 -1.43166e-05 0)
(0.00212492 -1.41956e-05 -1.31308e-22)
(0.00223526 -1.40688e-05 -4.64209e-25)
(0.00234459 -1.39364e-05 6.5656e-23)
(0.00245285 -1.37985e-05 1.32465e-22)
(0.00256001 -1.36553e-05 -6.63486e-23)
(0.00266603 -1.3507e-05 0)
(0.00277088 -1.33539e-05 0)
(0.00287451 -1.31958e-05 0)
(0.00297688 -1.30331e-05 0)
(0.00307797 -1.2866e-05 3.38314e-23)
(0.00317773 -1.26945e-05 -3.38354e-23)
(0.00327613 -1.25188e-05 -6.80996e-23)
(0.00337314 -1.23392e-05 1.36404e-22)
(0.00346873 -1.21558e-05 -2.0533e-22)
(0.00356289 -1.19686e-05 2.74461e-22)
(0.00365556 -1.17778e-05 -1.37438e-22)
(0.00374673 -1.15836e-05 0)
(0.00383637 -1.13861e-05 0)
(0.00392445 -1.11856e-05 -1.39067e-22)
(0.00401096 -1.0982e-05 1.39063e-22)
(0.00409587 -1.07756e-05 0)
(0.00417916 -1.05663e-05 2.80497e-22)
(0.0042608 -1.03545e-05 -5.61714e-22)
(0.00434078 -1.01402e-05 2.81277e-22)
(0.00441908 -9.92343e-06 0)
(0.00449567 -9.70456e-06 -2.83569e-22)
(0.00457055 -9.48351e-06 2.83559e-22)
(0.0046437 -9.26045e-06 0)
(0.00471509 -9.03541e-06 0)
(0.00478473 -8.80855e-06 -2.86551e-22)
(0.00485258 -8.58e-06 8.61158e-22)
(0.00491864 -8.34985e-06 -5.74576e-22)
(0.0049829 -8.11817e-06 0)
(0.00504536 -7.88508e-06 0)
(0.00510598 -7.65056e-06 0)
(0.00516477 -7.41475e-06 -5.81738e-22)
(0.00522172 -7.1778e-06 5.81796e-22)
(0.0052768 -6.93965e-06 -5.84638e-22)
(0.00533002 -6.70055e-06 5.84609e-22)
(0.00538138 -6.46041e-06 5.87401e-22)
(0.00543085 -6.21935e-06 -1.17609e-21)
(0.00547844 -5.97735e-06 5.88809e-22)
(0.00552414 -5.73451e-06 0)
(0.00556794 -5.49093e-06 5.92923e-22)
(0.00560983 -5.24655e-06 -1.18729e-21)
(0.0056498 -5.00146e-06 5.94307e-22)
(0.00568787 -4.7557e-06 0)
(0.00572401 -4.50918e-06 -5.98377e-22)
(0.00575822 -4.26196e-06 1.19803e-21)
(0.0057905 -4.01411e-06 -5.99743e-22)
(0.00582084 -3.76555e-06 0)
(0.00584923 -3.51633e-06 0)
(0.00587567 -3.26633e-06 6.05081e-22)
(0.00590016 -3.01553e-06 -6.05015e-22)
(0.00592268 -2.76386e-06 0)
(0.00594323 -2.51126e-06 -1.21817e-21)
(0.00596181 -2.25766e-06 1.21814e-21)
(0.00597839 -2.00287e-06 -1.2235e-21)
(0.00599298 -1.74674e-06 1.22347e-21)
(0.00600556 -1.489e-06 0)
(0.00601612 -1.22939e-06 0)
(0.00602464 -9.67499e-07 1.23399e-21)
(0.0060311 -7.02903e-07 2.64378e-24)
(0.00603548 -4.34743e-07 -1.23674e-21)
(0.00603775 -1.62215e-07 1.24194e-21)
(0.00603786 1.1647e-07 -1.24197e-21)
(0.00603578 4.00108e-07 -1.24711e-21)
(0.00603147 6.86139e-07 2.49719e-21)
(0.00602492 9.74924e-07 -2.50252e-21)
(0.0060161 1.2666e-06 1.25258e-21)
(0.00600499 1.56147e-06 0)
(0.00599155 1.86046e-06 -1.26057e-21)
(0.00597576 2.16413e-06 2.52348e-21)
(0.00595757 2.47453e-06 -1.26323e-21)
(0.00593693 2.79171e-06 1.26857e-21)
(0.00591374 3.12117e-06 -1.26866e-21)
(0.00588799 3.46043e-06 1.27404e-21)
(0.00585939 3.82524e-06 -1.27394e-21)
(0.00582806 4.20293e-06 0)
(0.00579325 4.64236e-06 -1.28215e-21)
(0.00575552 5.09444e-06 1.28201e-21)
(0.00571265 5.72067e-06 0)
(0.0056668 6.35603e-06 0)
(0.0056108 7.56541e-06 -1.2932e-21)
(0.00555188 9.13689e-06 -2.75538e-24)
(0.00546389 1.30608e-05 -2.82981e-24)
(0.00535289 3.81624e-05 -1.01849e-20)
(0.0052845 8.20785e-05 1.3021e-21)
(0.00525276 0.000128595 -2.02484e-25)
(0.00523872 0.000175647 -8.37664e-20)
(0.00524133 0.00022374 8.39137e-20)
(0.00525713 0.000272825 -8.40581e-20)
(0.00528539 0.000322694 1.31632e-21)
(0.0053223 0.000373916 -1.68496e-19)
(0.00537084 0.000427014 -1.6998e-19)
(0.00542852 0.000481223 -1.68775e-19)
(0.00549379 0.000537391 -1.32042e-21)
(0.00556799 0.000595862 -1.66242e-19)
(0.00565091 0.000656678 6.74278e-19)
(0.00574271 0.000719438 -3.39019e-19)
(0.00583925 0.00078483 2.63708e-21)
(0.00594645 0.000854045 -3.38685e-19)
(0.00606269 0.000925064 0)
(0.00618159 0.000999302 -3.35352e-19)
(0.00631269 0.00107832 3.34963e-19)
(0.00645237 0.00115939 0)
(0.00659433 0.00124431 -6.70242e-19)
(0.00674934 0.00133476 -3.23254e-23)
(0.00691169 0.00142805 0)
(0.00708151 0.00152582 6.65745e-19)
(0.0072567 0.00162829 1.33688e-21)
(0.00744505 0.00173753 3.29698e-19)
(0.00764326 0.00184979 6.59725e-19)
(0.00784433 0.00196786 -6.56261e-19)
(0.00806083 0.00209335 -1.31264e-18)
(0.00828888 0.00222333 6.53703e-19)
(0.00851945 0.00235914 6.49672e-19)
(0.00877262 0.00250539 -6.45452e-19)
(0.00904098 0.00265379 2.865e-25)
(0.0093162 0.00280683 -6.41628e-19)
(0.00960321 0.00296521 6.3702e-19)
(0.00990583 0.00313022 0)
(0.0102244 0.00329668 0)
(0.0105406 0.00346553 -6.26766e-19)
(0.0108747 0.00364264 -6.2181e-19)
(0.0112269 0.00382134 -1.20962e-21)
(0.0115727 0.00399952 -6.15031e-19)
(0.0119396 0.00418735 1.1926e-21)
(0.0123175 0.00437275 -1.18647e-21)
(0.0126978 0.00455991 0)
(0.0130814 0.00474842 -5.98468e-19)
(0.0134816 0.00494404 0)
(0.0138969 0.00513499 -5.89211e-19)
(0.0142991 0.0053234 5.83491e-19)
(0.0147166 0.00551679 1.13469e-21)
(0.0151435 0.00570833 5.75342e-19)
(0.015574 0.00589456 1.14052e-18)
(0.0159957 0.00607696 5.64261e-19)
(0.0164228 0.00626105 1.1213e-18)
(0.0168692 0.00643932 0)
(0.0172699 0.006601 -5.50724e-19)
(0.017683 0.00677752 1.08938e-18)
(0.0180998 0.00694332 0)
(0.0184904 0.00710831 -1.03726e-21)
(0.018881 0.00727718 1.03222e-21)
(0.0192761 0.00745463 -3.955e-22)
(0.019686 0.00762877 5.14393e-19)
(0.0200639 0.00780029 -5.08142e-19)
(0.0204579 0.0079861 -5.01659e-19)
(0.0208671 0.00817387 4.81558e-22)
(0.0212589 0.00835959 -4.13333e-24)
(0.0216668 0.00855996 4.81819e-19)
(0.0220838 0.00876054 -4.74599e-19)
(0.0225042 0.00896705 0)
(0.0229132 0.00917739 4.59868e-19)
(0.0233582 0.0094112 0)
(0.0238159 0.00964023 -4.31229e-22)
(0.0242736 0.00988094 -4.35656e-19)
(0.0247379 0.01013 -4.27645e-19)
(0.0252372 0.0104064 -4.19233e-19)
(0.0257757 0.0106846 -4.01177e-22)
(0.0262981 0.0109748 4.01695e-19)
(0.0268791 0.0112961 -3.92196e-19)
(0.0275236 0.0116365 0)
(0.0282089 0.0119801 -7.47032e-19)
(0.0289588 0.012339 -3.63755e-19)
(0.0297658 0.012687 0)
(0.0306066 0.0130242 -3.42271e-19)
(0.0314528 0.0133427 8.20534e-23)
(0.0323703 0.0136711 6.41028e-19)
(0.0333312 0.0139592 0)
(0.0342857 0.0142204 4.44429e-24)
(0.0352565 0.0144535 -4.42688e-24)
(0.0362701 0.0146727 5.44308e-19)
(0.0373225 0.014837 -2.58487e-19)
(0.0383336 0.0149514 -2.9229e-23)
(0.0393702 0.0150278 2.91441e-23)
(0.0404246 0.0150508 -5.16754e-23)
(0.0414524 0.0149937 4.08611e-19)
(0.0424486 0.0148738 0)
(0.0434328 0.014669 -1.75017e-19)
(0.0443454 0.0143656 3.74398e-23)
(0.0451579 0.0139596 -1.45517e-19)
(0.0458881 0.0134653 -1.31715e-19)
(0.0465192 0.0128438 -5.33009e-23)
(0.04693 0.0120975 1.02353e-19)
(0.0471667 0.0112529 8.81253e-20)
(0.0472057 0.0102899 7.42464e-20)
(0.0468997 0.0092075 3.31062e-23)
(0.0462291 0.00808875 0)
(0.0452734 0.00699041 -3.87411e-20)
(0.0440886 0.00595886 0)
(0.0427878 0.00501109 -1.09012e-20)
(0.04138 0.00414668 -3.72823e-21)
(0.0399185 0.00337765 0)
(0.0384376 0.0027009 1.32116e-21)
(0.0369648 0.00211671 1.9739e-22)
(0.0355349 0.00161691 0)
(0.0341478 0.00119615 3.59605e-22)
(0.0328374 0.000849215 -1.71743e-23)
(0.0315961 0.000568474 -2.96099e-22)
(0.0304555 0.000351867 -1.51007e-22)
(0.0294156 0.000186028 -1.17226e-24)
(0.0284792 6.87981e-05 -5.31855e-25)
(0.0276478 -5.89281e-06 5.46765e-23)
(0.0269357 -3.75128e-05 4.04087e-23)
(0.026356 -3.78267e-05 2.76062e-23)
(0.0258965 -3.89337e-06 -3.36754e-24)
(0.0430437 0.000105489 -4.56563e-25)
(0.0428402 0.000151624 -4.97282e-24)
(0.0427541 0.000150125 0)
(0.0427592 0.000104873 0)
(0.0428008 3.01488e-06 -3.64745e-25)
(0.0428311 -0.000150445 0)
(0.0428238 -0.000357653 0)
(0.042755 -0.000613346 0)
(0.0426064 -0.000924883 0)
(0.0423269 -0.0012835 -4.60896e-22)
(0.0419156 -0.00168473 0)
(0.0413388 -0.00211934 -6.6588e-22)
(0.0406001 -0.00258287 -1.5129e-24)
(0.0396531 -0.00306178 -5.35216e-26)
(0.0385213 -0.00354203 3.11028e-24)
(0.037176 -0.00401638 -1.54379e-24)
(0.0356073 -0.0044575 0)
(0.0338507 -0.00485499 -2.24736e-21)
(0.0318908 -0.00519284 8.35349e-25)
(0.0297293 -0.00544465 -6.73817e-22)
(0.0274048 -0.00557961 1.06434e-21)
(0.0250108 -0.00558398 -5.34795e-21)
(0.0226644 -0.00547874 8.94509e-21)
(0.0203941 -0.0052864 5.42442e-24)
(0.0182312 -0.00502219 -4.90168e-24)
(0.0162072 -0.00470949 2.23861e-20)
(0.0143152 -0.00435944 0)