/*--------------------------------*- C++ -*----------------------------------*\
| =========                 |                                                 |
| \\      /  F ield         | OpenFOAM: The Open Source CFD Toolbox           |
|  \\    /   O peration     | Version:  v2006                                 |
|   \\  /    A nd           | Website:  www.openfoam.com                      |
|    \\/     M anipulation  |                                                 |
\*---------------------------------------------------------------------------*/
FoamFile
{
    version     2.0;
    format      ascii;
    class       volScalarField;
    location    "10";
    object      V;
}
// * * * * * * * * * * * * * * * * * * * * * * * * * * * * * * * * * * * * * //

dimensions      [0 3 0 0 0 0 0];


internalField   nonuniform List<scalar> 
80000
(
7.21803e-06
7.21776e-06
7.21737e-06
7.21704e-06
7.21687e-06
7.21695e-06
7.21729e-06
7.21797e-06
7.21887e-06
7.21987e-06
7.22109e-06
7.22184e-06
7.22308e-06
7.22243e-06
7.22275e-06
7.21994e-06
7.21794e-06
7.21251e-06
7.20616e-06
7.19775e-06
7.18677e-06
7.18087e-06
7.17055e-06
7.16846e-06
7.16473e-06
7.16483e-06
7.16943e-06
7.1718e-06
7.18276e-06
7.1937e-06
7.20743e-06
7.22657e-06
7.24508e-06
7.26845e-06
7.2955e-06
7.32212e-06
7.35396e-06
7.38795e-06
7.42319e-06
7.46226e-06
7.50371e-06
7.54736e-06
7.59309e-06
7.64139e-06
7.69255e-06
7.74419e-06
7.79591e-06
7.84837e-06
7.89862e-06
7.94975e-06
7.9995e-06
8.04859e-06
8.09789e-06
8.14631e-06
8.19391e-06
8.24209e-06
8.28868e-06
8.33493e-06
8.38157e-06
8.42679e-06
8.47227e-06
8.5171e-06
8.56125e-06
8.60549e-06
8.64902e-06
8.69187e-06
8.7349e-06
8.77761e-06
8.81936e-06
8.86256e-06
8.90575e-06
8.94996e-06
8.99571e-06
9.04129e-06
9.08863e-06
9.13606e-06
9.18372e-06
9.23385e-06
9.2825e-06
9.33275e-06
9.38402e-06
9.43401e-06
9.48666e-06
9.53815e-06
9.58915e-06
9.64336e-06
9.69426e-06
9.74756e-06
9.79994e-06
9.8509e-06
9.90489e-06
9.95481e-06
1.00064e-05
1.00553e-05
1.01023e-05
1.01503e-05
1.01932e-05
1.02388e-05
1.02795e-05
1.03205e-05
1.03594e-05
1.0396e-05
1.04328e-05
1.04653e-05
1.04995e-05
1.05287e-05
1.05584e-05
1.05851e-05
1.06102e-05
1.06341e-05
1.06552e-05
1.06755e-05
1.06927e-05
1.07087e-05
1.07229e-05
1.07357e-05
1.07435e-05
1.07533e-05
1.07594e-05
1.07612e-05
1.07655e-05
1.10087e-05
1.05202e-05
1.07636e-05
1.07636e-05
1.07635e-05
1.07636e-05
1.07651e-05
1.07638e-05
1.07637e-05
1.07642e-05
1.07633e-05
1.07632e-05
1.0764e-05
1.07638e-05
1.07651e-05
1.07636e-05
1.07634e-05
1.07636e-05
1.07636e-05
1.07637e-05
1.07651e-05
1.07638e-05
1.0764e-05
1.07632e-05
1.07633e-05
1.07642e-05
1.07637e-05
1.07651e-05
1.07636e-05
1.07633e-05
1.07639e-05
1.07636e-05
1.07636e-05
1.0765e-05
1.07638e-05
1.07638e-05
1.07632e-05
1.07633e-05
1.07644e-05
1.07637e-05
1.07651e-05
1.07636e-05
1.07632e-05
1.07639e-05
1.07638e-05
1.07635e-05
1.07648e-05
1.07639e-05
1.07637e-05
1.07632e-05
1.07634e-05
1.07646e-05
1.07637e-05
1.0765e-05
1.07638e-05
1.07636e-05
1.07632e-05
1.07637e-05
1.07638e-05
1.07645e-05
1.0764e-05
1.07636e-05
1.07631e-05
1.07635e-05
1.07648e-05
1.07637e-05
1.07649e-05
1.07639e-05
1.07636e-05
1.07632e-05
1.07636e-05
1.07642e-05
1.07642e-05
1.07641e-05
1.07636e-05
1.07631e-05
1.07635e-05
1.07649e-05
1.07637e-05
1.07637e-05
1.07649e-05
1.07635e-05
1.07631e-05
1.07636e-05
1.07641e-05
1.07642e-05
1.07642e-05
1.07636e-05
1.07632e-05
1.07636e-05
1.07639e-05
1.07649e-05
1.07637e-05
1.07648e-05
1.07635e-05
1.07631e-05
1.07636e-05
1.0764e-05
1.07645e-05
1.07638e-05
1.07637e-05
1.07632e-05
1.07636e-05
1.07638e-05
1.0765e-05
1.07637e-05
1.07646e-05
1.07634e-05
1.07632e-05
1.07637e-05
1.07639e-05
1.07648e-05
1.07635e-05
1.07638e-05
1.07639e-05
1.07632e-05
1.07636e-05
1.07651e-05
1.07637e-05
1.07644e-05
1.07633e-05
1.07632e-05
1.07638e-05
1.07638e-05
1.0765e-05
1.07636e-05
1.07636e-05
1.07639e-05
1.07633e-05
1.07636e-05
1.07651e-05
1.07637e-05
1.07642e-05
1.07633e-05
1.07632e-05
1.0764e-05
1.07638e-05
1.07651e-05
1.07637e-05
1.07636e-05
1.07636e-05
1.07634e-05
1.07636e-05
1.07651e-05
1.07638e-05
1.0764e-05
1.07632e-05
1.07633e-05
1.07642e-05
1.07637e-05
1.07638e-05
1.07651e-05
1.07636e-05
1.07635e-05
1.07636e-05
1.07636e-05
1.05202e-05
1.10087e-05
1.07655e-05
1.07612e-05
1.07594e-05
1.07533e-05
1.07435e-05
1.07357e-05
1.07232e-05
1.07082e-05
1.06928e-05
1.06755e-05
1.06557e-05
1.06332e-05
1.06107e-05
1.05859e-05
1.05569e-05
1.05293e-05
1.04996e-05
1.04643e-05
1.04337e-05
1.03966e-05
1.03583e-05
1.0321e-05
1.02797e-05
1.02392e-05
1.0192e-05
1.01511e-05
1.01027e-05
1.00543e-05
1.00068e-05
9.9557e-06
9.90357e-06
9.85127e-06
9.80018e-06
9.74818e-06
9.69263e-06
9.6442e-06
9.59005e-06
9.53675e-06
9.48711e-06
9.43496e-06
9.38226e-06
9.33333e-06
9.28293e-06
9.23428e-06
9.18201e-06
9.13716e-06
9.08901e-06
9.0411e-06
8.99512e-06
8.95066e-06
8.90675e-06
8.86076e-06
8.81988e-06
8.77871e-06
8.7331e-06
8.69254e-06
8.64929e-06
8.6061e-06
8.55947e-06
8.51806e-06
8.47277e-06
8.42618e-06
8.38156e-06
8.33558e-06
8.28756e-06
8.24232e-06
8.19425e-06
8.14728e-06
8.09616e-06
8.04924e-06
7.99985e-06
7.95033e-06
7.89687e-06
7.84924e-06
7.79667e-06
7.74352e-06
7.69236e-06
7.642e-06
7.59228e-06
7.54731e-06
7.50409e-06
7.46345e-06
7.42145e-06
7.38838e-06
7.3543e-06
7.32251e-06
7.29391e-06
7.26955e-06
7.24542e-06
7.22644e-06
7.20695e-06
7.1942e-06
7.18212e-06
7.17198e-06
7.16965e-06
7.16561e-06
7.16323e-06
7.16907e-06
7.1707e-06
7.181e-06
7.18643e-06
7.19813e-06
7.2055e-06
7.21286e-06
7.21798e-06
7.22015e-06
7.2221e-06
7.22287e-06
7.22351e-06
7.22112e-06
7.22139e-06
7.21986e-06
7.2192e-06
7.21746e-06
7.21763e-06
7.21649e-06
7.21718e-06
7.21704e-06
7.2176e-06
7.21708e-06
7.21848e-06
7.33596e-06
7.33569e-06
7.33529e-06
7.33496e-06
7.33478e-06
7.33487e-06
7.33521e-06
7.3359e-06
7.33681e-06
7.33784e-06
7.33909e-06
7.33986e-06
7.34113e-06
7.34049e-06
7.34084e-06
7.338e-06
7.33601e-06
7.33053e-06
7.32413e-06
7.31564e-06
7.30455e-06
7.29862e-06
7.28821e-06
7.28614e-06
7.28243e-06
7.2826e-06
7.28734e-06
7.28982e-06
7.30101e-06
7.31218e-06
7.32619e-06
7.34569e-06
7.36455e-06
7.38834e-06
7.41587e-06
7.44296e-06
7.47534e-06
7.50991e-06
7.54575e-06
7.58547e-06
7.62761e-06
7.67198e-06
7.71845e-06
7.76754e-06
7.81952e-06
7.872e-06
7.92455e-06
7.97785e-06
8.02891e-06
8.08086e-06
8.13141e-06
8.1813e-06
8.23139e-06
8.2806e-06
8.32897e-06
8.37792e-06
8.42527e-06
8.47226e-06
8.51966e-06
8.56562e-06
8.61183e-06
8.65739e-06
8.70226e-06
8.74722e-06
8.79145e-06
8.83501e-06
8.87873e-06
8.92215e-06
8.96457e-06
9.00848e-06
9.05238e-06
9.0973e-06
9.14379e-06
9.19011e-06
9.23821e-06
9.2864e-06
9.33483e-06
9.38575e-06
9.43518e-06
9.48624e-06
9.53832e-06
9.58911e-06
9.64258e-06
9.69488e-06
9.74669e-06
9.80176e-06
9.85345e-06
9.90759e-06
9.96079e-06
1.00126e-05
1.00674e-05
1.01181e-05
1.01704e-05
1.02201e-05
1.02679e-05
1.03166e-05
1.03602e-05
1.04065e-05
1.04479e-05
1.04894e-05
1.0529e-05
1.05662e-05
1.06035e-05
1.06366e-05
1.06712e-05
1.07009e-05
1.07311e-05
1.07581e-05
1.07837e-05
1.08079e-05
1.08294e-05
1.08499e-05
1.08674e-05
1.08837e-05
1.08981e-05
1.09111e-05
1.09191e-05
1.0929e-05
1.09352e-05
1.0937e-05
1.09414e-05
1.11881e-05
1.06926e-05
1.09394e-05
1.09395e-05
1.09393e-05
1.09394e-05
1.0941e-05
1.09396e-05
1.09396e-05
1.09401e-05
1.09391e-05
1.09391e-05
1.09398e-05
1.09396e-05
1.0941e-05
1.09395e-05
1.09393e-05
1.09395e-05
1.09394e-05
1.09395e-05
1.0941e-05
1.09396e-05
1.09399e-05
1.09391e-05
1.09391e-05
1.094e-05
1.09396e-05
1.0941e-05
1.09395e-05
1.09392e-05
1.09397e-05
1.09394e-05
1.09395e-05
1.09409e-05
1.09397e-05
1.09397e-05
1.0939e-05
1.09392e-05
1.09402e-05
1.09395e-05
1.0941e-05
1.09394e-05
1.09391e-05
1.09398e-05
1.09397e-05
1.09394e-05
1.09407e-05
1.09397e-05
1.09395e-05
1.0939e-05
1.09393e-05
1.09404e-05
1.09395e-05
1.09409e-05
1.09397e-05
1.09394e-05
1.09391e-05
1.09396e-05
1.09397e-05
1.09404e-05
1.09398e-05
1.09395e-05
1.0939e-05
1.09393e-05
1.09406e-05
1.09395e-05
1.09407e-05
1.09397e-05
1.09394e-05
1.0939e-05
1.09395e-05
1.094e-05
1.09401e-05
1.09399e-05
1.09394e-05
1.0939e-05
1.09394e-05
1.09408e-05
1.09395e-05
1.09395e-05
1.09408e-05
1.09394e-05
1.0939e-05
1.09394e-05
1.09399e-05
1.09401e-05
1.094e-05
1.09395e-05
1.0939e-05
1.09394e-05
1.09397e-05
1.09407e-05
1.09395e-05
1.09406e-05
1.09393e-05
1.0939e-05
1.09395e-05
1.09398e-05
1.09404e-05
1.09397e-05
1.09396e-05
1.09391e-05
1.09394e-05
1.09397e-05
1.09409e-05
1.09395e-05
1.09404e-05
1.09393e-05
1.0939e-05
1.09395e-05
1.09397e-05
1.09407e-05
1.09394e-05
1.09397e-05
1.09398e-05
1.09391e-05
1.09394e-05
1.0941e-05
1.09395e-05
1.09402e-05
1.09392e-05
1.0939e-05
1.09397e-05
1.09397e-05
1.09409e-05
1.09395e-05
1.09394e-05
1.09397e-05
1.09392e-05
1.09395e-05
1.0941e-05
1.09396e-05
1.094e-05
1.09391e-05
1.09391e-05
1.09399e-05
1.09396e-05
1.0941e-05
1.09395e-05
1.09394e-05
1.09395e-05
1.09393e-05
1.09395e-05
1.0941e-05
1.09396e-05
1.09398e-05
1.09391e-05
1.09391e-05
1.09401e-05
1.09396e-05
1.09396e-05
1.0941e-05
1.09394e-05
1.09393e-05
1.09395e-05
1.09394e-05
1.06926e-05
1.11881e-05
1.09414e-05
1.0937e-05
1.09352e-05
1.0929e-05
1.09191e-05
1.09111e-05
1.08984e-05
1.08832e-05
1.08676e-05
1.085e-05
1.08298e-05
1.0807e-05
1.07842e-05
1.0759e-05
1.07295e-05
1.07015e-05
1.06713e-05
1.06355e-05
1.06044e-05
1.05667e-05
1.05279e-05
1.049e-05
1.0448e-05
1.04069e-05
1.0359e-05
1.03174e-05
1.02683e-05
1.02191e-05
1.01709e-05
1.0119e-05
1.0066e-05
1.00129e-05
9.96103e-06
9.90822e-06
9.8518e-06
9.8026e-06
9.7476e-06
9.69347e-06
9.64304e-06
9.59007e-06
9.53653e-06
9.48682e-06
9.43562e-06
9.38619e-06
9.33308e-06
9.28751e-06
9.23859e-06
9.18991e-06
9.14319e-06
9.09802e-06
9.05339e-06
9.00666e-06
8.9651e-06
8.92325e-06
8.8769e-06
8.83568e-06
8.79173e-06
8.74783e-06
8.70045e-06
8.65836e-06
8.61234e-06
8.565e-06
8.51966e-06
8.47293e-06
8.42413e-06
8.37815e-06
8.32931e-06
8.28158e-06
8.22963e-06
8.18195e-06
8.13177e-06
8.08145e-06
8.02713e-06
7.97873e-06
7.92532e-06
7.87131e-06
7.81933e-06
7.76816e-06
7.71763e-06
7.67192e-06
7.62799e-06
7.58668e-06
7.54398e-06
7.51035e-06
7.4757e-06
7.44335e-06
7.41425e-06
7.38945e-06
7.36489e-06
7.34556e-06
7.3257e-06
7.3127e-06
7.30037e-06
7.29e-06
7.28756e-06
7.28339e-06
7.28091e-06
7.28677e-06
7.28836e-06
7.29875e-06
7.30421e-06
7.31603e-06
7.32346e-06
7.33088e-06
7.33605e-06
7.33822e-06
7.34017e-06
7.34093e-06
7.34157e-06
7.33912e-06
7.33939e-06
7.33783e-06
7.33716e-06
7.33538e-06
7.33555e-06
7.3344e-06
7.33509e-06
7.33495e-06
7.33552e-06
7.335e-06
7.33642e-06
7.45581e-06
7.45553e-06
7.45513e-06
7.45479e-06
7.45461e-06
7.4547e-06
7.45505e-06
7.45576e-06
7.45668e-06
7.45773e-06
7.459e-06
7.4598e-06
7.4611e-06
7.46047e-06
7.46084e-06
7.458e-06
7.456e-06
7.45048e-06
7.44403e-06
7.43546e-06
7.42426e-06
7.4183e-06
7.4078e-06
7.40577e-06
7.40207e-06
7.40231e-06
7.40719e-06
7.40978e-06
7.42121e-06
7.43263e-06
7.44692e-06
7.46679e-06
7.48601e-06
7.51023e-06
7.53824e-06
7.56581e-06
7.59875e-06
7.6339e-06
7.67034e-06
7.71074e-06
7.75357e-06
7.79867e-06
7.8459e-06
7.89579e-06
7.94861e-06
8.00193e-06
8.05533e-06
8.10948e-06
8.16137e-06
8.21415e-06
8.26552e-06
8.31621e-06
8.36711e-06
8.41711e-06
8.46626e-06
8.516e-06
8.56412e-06
8.61188e-06
8.66004e-06
8.70674e-06
8.75371e-06
8.8e-06
8.8456e-06
8.8913e-06
8.93625e-06
8.98051e-06
9.02495e-06
9.06907e-06
9.11219e-06
9.15682e-06
9.20142e-06
9.24708e-06
9.29432e-06
9.34138e-06
9.39026e-06
9.43923e-06
9.48843e-06
9.54017e-06
9.59038e-06
9.64225e-06
9.69516e-06
9.74675e-06
9.80107e-06
9.8542e-06
9.90683e-06
9.96276e-06
1.00153e-05
1.00702e-05
1.01243e-05
1.01769e-05
1.02325e-05
1.0284e-05
1.03372e-05
1.03876e-05
1.04361e-05
1.04856e-05
1.05299e-05
1.05769e-05
1.06189e-05
1.06611e-05
1.07013e-05
1.07391e-05
1.0777e-05
1.08106e-05
1.08458e-05
1.08759e-05
1.09066e-05
1.0934e-05
1.096e-05
1.09845e-05
1.10064e-05
1.10272e-05
1.1045e-05
1.10615e-05
1.10761e-05
1.10894e-05
1.10975e-05
1.11076e-05
1.11138e-05
1.11157e-05
1.11201e-05
1.13704e-05
1.08678e-05
1.11181e-05
1.11182e-05
1.1118e-05
1.11182e-05
1.11197e-05
1.11184e-05
1.11183e-05
1.11188e-05
1.11179e-05
1.11178e-05
1.11186e-05
1.11184e-05
1.11197e-05
1.11182e-05
1.1118e-05
1.11182e-05
1.11181e-05
1.11182e-05
1.11197e-05
1.11183e-05
1.11186e-05
1.11178e-05
1.11178e-05
1.11188e-05
1.11183e-05
1.11198e-05
1.11182e-05
1.11179e-05
1.11184e-05
1.11182e-05
1.11182e-05
1.11196e-05
1.11184e-05
1.11184e-05
1.11178e-05
1.11179e-05
1.1119e-05
1.11183e-05
1.11197e-05
1.11182e-05
1.11178e-05
1.11185e-05
1.11184e-05
1.11181e-05
1.11194e-05
1.11185e-05
1.11183e-05
1.11177e-05
1.1118e-05
1.11192e-05
1.11182e-05
1.11196e-05
1.11184e-05
1.11182e-05
1.11178e-05
1.11183e-05
1.11184e-05
1.11191e-05
1.11186e-05
1.11182e-05
1.11177e-05
1.1118e-05
1.11194e-05
1.11182e-05
1.11195e-05
1.11185e-05
1.11181e-05
1.11178e-05
1.11182e-05
1.11188e-05
1.11188e-05
1.11187e-05
1.11181e-05
1.11177e-05
1.11181e-05
1.11195e-05
1.11182e-05
1.11182e-05
1.11195e-05
1.11181e-05
1.11177e-05
1.11181e-05
1.11187e-05
1.11188e-05
1.11188e-05
1.11182e-05
1.11178e-05
1.11181e-05
1.11185e-05
1.11195e-05
1.11182e-05
1.11194e-05
1.1118e-05
1.11177e-05
1.11182e-05
1.11186e-05
1.11191e-05
1.11184e-05
1.11183e-05
1.11178e-05
1.11182e-05
1.11184e-05
1.11196e-05
1.11182e-05
1.11192e-05
1.1118e-05
1.11177e-05
1.11183e-05
1.11185e-05
1.11194e-05
1.11181e-05
1.11184e-05
1.11185e-05
1.11178e-05
1.11182e-05
1.11197e-05
1.11183e-05
1.1119e-05
1.11179e-05
1.11178e-05
1.11184e-05
1.11184e-05
1.11196e-05
1.11182e-05
1.11182e-05
1.11184e-05
1.11179e-05
1.11182e-05
1.11198e-05
1.11183e-05
1.11188e-05
1.11178e-05
1.11178e-05
1.11186e-05
1.11183e-05
1.11197e-05
1.11182e-05
1.11181e-05
1.11182e-05
1.1118e-05
1.11182e-05
1.11197e-05
1.11184e-05
1.11186e-05
1.11178e-05
1.11179e-05
1.11188e-05
1.11183e-05
1.11184e-05
1.11197e-05
1.11182e-05
1.1118e-05
1.11182e-05
1.11181e-05
1.08678e-05
1.13704e-05
1.11201e-05
1.11157e-05
1.11138e-05
1.11076e-05
1.10975e-05
1.10894e-05
1.10764e-05
1.10611e-05
1.10452e-05
1.10273e-05
1.10068e-05
1.09837e-05
1.09605e-05
1.09349e-05
1.0905e-05
1.08765e-05
1.08459e-05
1.08095e-05
1.07779e-05
1.07396e-05
1.07002e-05
1.06617e-05
1.06191e-05
1.05773e-05
1.05287e-05
1.04865e-05
1.04366e-05
1.03866e-05
1.03377e-05
1.02849e-05
1.02312e-05
1.01772e-05
1.01245e-05
1.00709e-05
1.00136e-05
9.96362e-06
9.90775e-06
9.85277e-06
9.80154e-06
9.74773e-06
9.69335e-06
9.64284e-06
9.59083e-06
9.54061e-06
9.48666e-06
9.44035e-06
9.39065e-06
9.34119e-06
9.29371e-06
9.2478e-06
9.20245e-06
9.15497e-06
9.11274e-06
9.0702e-06
9.0231e-06
8.9812e-06
8.93652e-06
8.89191e-06
8.84377e-06
8.80099e-06
8.75423e-06
8.70612e-06
8.66004e-06
8.61255e-06
8.56297e-06
8.51624e-06
8.46661e-06
8.41811e-06
8.36533e-06
8.31687e-06
8.26589e-06
8.21476e-06
8.15956e-06
8.11038e-06
8.05611e-06
8.00123e-06
7.94841e-06
7.89642e-06
7.84508e-06
7.79862e-06
7.75396e-06
7.71196e-06
7.66855e-06
7.63435e-06
7.5991e-06
7.56621e-06
7.5366e-06
7.51135e-06
7.48635e-06
7.46666e-06
7.44643e-06
7.43315e-06
7.42056e-06
7.40997e-06
7.40741e-06
7.40311e-06
7.40053e-06
7.4064e-06
7.40795e-06
7.41843e-06
7.42392e-06
7.43585e-06
7.44335e-06
7.45084e-06
7.45605e-06
7.45822e-06
7.46017e-06
7.46092e-06
7.46155e-06
7.45906e-06
7.45931e-06
7.45772e-06
7.45703e-06
7.45522e-06
7.4554e-06
7.45422e-06
7.45493e-06
7.45479e-06
7.45536e-06
7.45483e-06
7.45627e-06
7.57761e-06
7.57733e-06
7.57692e-06
7.57658e-06
7.57639e-06
7.57648e-06
7.57684e-06
7.57756e-06
7.57851e-06
7.57957e-06
7.58087e-06
7.58169e-06
7.58303e-06
7.58241e-06
7.58281e-06
7.57995e-06
7.57796e-06
7.57239e-06
7.56589e-06
7.55724e-06
7.54594e-06
7.53995e-06
7.52935e-06
7.52736e-06
7.52368e-06
7.524e-06
7.52902e-06
7.53173e-06
7.5434e-06
7.55507e-06
7.56966e-06
7.58989e-06
7.60948e-06
7.63413e-06
7.66264e-06
7.6907e-06
7.7242e-06
7.75996e-06
7.79702e-06
7.83808e-06
7.88162e-06
7.92747e-06
7.97547e-06
8.02617e-06
8.07984e-06
8.13402e-06
8.18828e-06
8.2433e-06
8.29602e-06
8.34966e-06
8.40185e-06
8.45336e-06
8.50508e-06
8.55589e-06
8.60583e-06
8.65638e-06
8.70527e-06
8.7538e-06
8.80274e-06
8.85021e-06
8.89793e-06
8.94498e-06
8.99132e-06
9.03776e-06
9.08344e-06
9.12842e-06
9.17359e-06
9.21843e-06
9.26225e-06
9.30761e-06
9.35294e-06
9.39933e-06
9.44734e-06
9.49516e-06
9.54482e-06
9.59458e-06
9.64457e-06
9.69713e-06
9.74815e-06
9.80084e-06
9.85459e-06
9.907e-06
9.96217e-06
1.00161e-05
1.00696e-05
1.01264e-05
1.01797e-05
1.02356e-05
1.02905e-05
1.03439e-05
1.04004e-05
1.04527e-05
1.05067e-05
1.05579e-05
1.06072e-05
1.06574e-05
1.07024e-05
1.07501e-05
1.07928e-05
1.08357e-05
1.08765e-05
1.09148e-05
1.09533e-05
1.09874e-05
1.10231e-05
1.10538e-05
1.10849e-05
1.11128e-05
1.11392e-05
1.11641e-05
1.11862e-05
1.12074e-05
1.12255e-05
1.12423e-05
1.12571e-05
1.12706e-05
1.12788e-05
1.1289e-05
1.12954e-05
1.12973e-05
1.13018e-05
1.15556e-05
1.10458e-05
1.12998e-05
1.12998e-05
1.12997e-05
1.12998e-05
1.13014e-05
1.13e-05
1.12999e-05
1.13004e-05
1.12995e-05
1.12994e-05
1.13002e-05
1.13e-05
1.13014e-05
1.12998e-05
1.12996e-05
1.12999e-05
1.12998e-05
1.12999e-05
1.13014e-05
1.13e-05
1.13002e-05
1.12994e-05
1.12995e-05
1.13004e-05
1.12999e-05
1.13014e-05
1.12998e-05
1.12995e-05
1.13001e-05
1.12998e-05
1.12998e-05
1.13013e-05
1.13e-05
1.13001e-05
1.12994e-05
1.12995e-05
1.13006e-05
1.12999e-05
1.13014e-05
1.12998e-05
1.12994e-05
1.13002e-05
1.13e-05
1.12997e-05
1.13011e-05
1.13001e-05
1.12999e-05
1.12993e-05
1.12996e-05
1.13008e-05
1.12999e-05
1.13013e-05
1.13e-05
1.12998e-05
1.12994e-05
1.13e-05
1.13001e-05
1.13008e-05
1.13002e-05
1.12998e-05
1.12993e-05
1.12997e-05
1.1301e-05
1.12999e-05
1.13011e-05
1.13001e-05
1.12998e-05
1.12994e-05
1.12998e-05
1.13004e-05
1.13005e-05
1.13003e-05
1.12998e-05
1.12993e-05
1.12997e-05
1.13012e-05
1.12999e-05
1.12999e-05
1.13012e-05
1.12997e-05
1.12993e-05
1.12998e-05
1.13003e-05
1.13005e-05
1.13004e-05
1.12998e-05
1.12994e-05
1.12998e-05
1.13001e-05
1.13011e-05
1.12999e-05
1.1301e-05
1.12997e-05
1.12993e-05
1.12998e-05
1.13002e-05
1.13008e-05
1.13001e-05
1.13e-05
1.12994e-05
1.12998e-05
1.13e-05
1.13013e-05
1.12999e-05
1.13008e-05
1.12996e-05
1.12993e-05
1.12999e-05
1.13001e-05
1.13011e-05
1.12997e-05
1.13e-05
1.13002e-05
1.12994e-05
1.12998e-05
1.13014e-05
1.12999e-05
1.13006e-05
1.12995e-05
1.12994e-05
1.13001e-05
1.13e-05
1.13013e-05
1.12998e-05
1.12998e-05
1.13001e-05
1.12995e-05
1.12998e-05
1.13014e-05
1.12999e-05
1.13004e-05
1.12995e-05
1.12994e-05
1.13002e-05
1.13e-05
1.13014e-05
1.12999e-05
1.12998e-05
1.12999e-05
1.12996e-05
1.12998e-05
1.13014e-05
1.13e-05
1.13002e-05
1.12994e-05
1.12995e-05
1.13004e-05
1.12999e-05
1.13e-05
1.13014e-05
1.12998e-05
1.12997e-05
1.12998e-05
1.12998e-05
1.10458e-05
1.15556e-05
1.13018e-05
1.12973e-05
1.12954e-05
1.1289e-05
1.12788e-05
1.12706e-05
1.12574e-05
1.12418e-05
1.12257e-05
1.12075e-05
1.11867e-05
1.11632e-05
1.11396e-05
1.11137e-05
1.10833e-05
1.10544e-05
1.10233e-05
1.09863e-05
1.09543e-05
1.09154e-05
1.08753e-05
1.08362e-05
1.07929e-05
1.07505e-05
1.07012e-05
1.06583e-05
1.06076e-05
1.05569e-05
1.05072e-05
1.04536e-05
1.0399e-05
1.03442e-05
1.02907e-05
1.02362e-05
1.0178e-05
1.01273e-05
1.00705e-05
1.00147e-05
9.96265e-06
9.90799e-06
9.85275e-06
9.80144e-06
9.7486e-06
9.69758e-06
9.64278e-06
9.59572e-06
9.54522e-06
9.49497e-06
9.44672e-06
9.40007e-06
9.35398e-06
9.30572e-06
9.2628e-06
9.21957e-06
9.17171e-06
9.12912e-06
9.08372e-06
9.03838e-06
8.98945e-06
8.94598e-06
8.89845e-06
8.84957e-06
8.80274e-06
8.75449e-06
8.7041e-06
8.65661e-06
8.60619e-06
8.55689e-06
8.50327e-06
8.45403e-06
8.40222e-06
8.35027e-06
8.29419e-06
8.24421e-06
8.18907e-06
8.13332e-06
8.07964e-06
8.0268e-06
7.97463e-06
7.92741e-06
7.88202e-06
7.83933e-06
7.7952e-06
7.76041e-06
7.72456e-06
7.6911e-06
7.66098e-06
7.63528e-06
7.60983e-06
7.58976e-06
7.56915e-06
7.5556e-06
7.54275e-06
7.53192e-06
7.52925e-06
7.52481e-06
7.52211e-06
7.528e-06
7.52951e-06
7.54008e-06
7.54559e-06
7.55764e-06
7.5652e-06
7.57276e-06
7.578e-06
7.58017e-06
7.58213e-06
7.58286e-06
7.58348e-06
7.58094e-06
7.58118e-06
7.57956e-06
7.57886e-06
7.57702e-06
7.57719e-06
7.576e-06
7.57671e-06
7.57657e-06
7.57716e-06
7.57662e-06
7.57808e-06
7.7014e-06
7.70111e-06
7.70069e-06
7.70035e-06
7.70016e-06
7.70025e-06
7.70062e-06
7.70135e-06
7.70231e-06
7.7034e-06
7.70473e-06
7.70557e-06
7.70694e-06
7.70633e-06
7.70676e-06
7.70389e-06
7.7019e-06
7.69629e-06
7.68974e-06
7.68102e-06
7.66961e-06
7.66359e-06
7.65291e-06
7.65095e-06
7.64729e-06
7.64769e-06
7.65286e-06
7.65569e-06
7.66762e-06
7.67954e-06
7.69442e-06
7.71504e-06
7.73499e-06
7.7601e-06
7.78911e-06
7.81766e-06
7.85174e-06
7.88811e-06
7.9258e-06
7.96755e-06
8.01181e-06
8.05841e-06
8.1072e-06
8.15871e-06
8.21326e-06
8.2683e-06
8.32344e-06
8.37934e-06
8.43291e-06
8.48741e-06
8.54044e-06
8.59279e-06
8.64534e-06
8.69697e-06
8.74772e-06
8.79908e-06
8.84876e-06
8.89808e-06
8.94781e-06
8.99604e-06
9.04454e-06
9.09236e-06
9.13945e-06
9.18664e-06
9.23307e-06
9.27878e-06
9.32468e-06
9.37026e-06
9.4148e-06
9.46089e-06
9.50696e-06
9.55411e-06
9.60289e-06
9.65148e-06
9.70194e-06
9.75249e-06
9.80329e-06
9.85668e-06
9.90852e-06
9.96205e-06
1.00166e-05
1.00699e-05
1.01259e-05
1.01808e-05
1.02351e-05
1.02927e-05
1.03469e-05
1.04036e-05
1.04594e-05
1.05136e-05
1.0571e-05
1.06241e-05
1.06789e-05
1.0731e-05
1.0781e-05
1.0832e-05
1.08777e-05
1.09262e-05
1.09695e-05
1.1013e-05
1.10545e-05
1.10934e-05
1.11325e-05
1.11671e-05
1.12034e-05
1.12345e-05
1.12661e-05
1.12945e-05
1.13212e-05
1.13466e-05
1.1369e-05
1.13906e-05
1.14089e-05
1.1426e-05
1.1441e-05
1.14547e-05
1.1463e-05
1.14734e-05
1.14799e-05
1.14818e-05
1.14864e-05
1.17438e-05
1.12268e-05
1.14844e-05
1.14844e-05
1.14843e-05
1.14844e-05
1.1486e-05
1.14846e-05
1.14845e-05
1.1485e-05
1.14841e-05
1.1484e-05
1.14848e-05
1.14846e-05
1.1486e-05
1.14844e-05
1.14842e-05
1.14845e-05
1.14844e-05
1.14845e-05
1.1486e-05
1.14846e-05
1.14848e-05
1.1484e-05
1.14841e-05
1.1485e-05
1.14845e-05
1.1486e-05
1.14844e-05
1.14841e-05
1.14847e-05
1.14844e-05
1.14844e-05
1.14859e-05
1.14846e-05
1.14846e-05
1.1484e-05
1.14841e-05
1.14852e-05
1.14845e-05
1.1486e-05
1.14844e-05
1.1484e-05
1.14848e-05
1.14846e-05
1.14843e-05
1.14857e-05
1.14847e-05
1.14845e-05
1.14839e-05
1.14842e-05
1.14854e-05
1.14845e-05
1.14859e-05
1.14846e-05
1.14844e-05
1.1484e-05
1.14846e-05
1.14847e-05
1.14854e-05
1.14848e-05
1.14844e-05
1.14839e-05
1.14843e-05
1.14856e-05
1.14845e-05
1.14857e-05
1.14847e-05
1.14844e-05
1.1484e-05
1.14844e-05
1.1485e-05
1.14851e-05
1.14849e-05
1.14844e-05
1.14839e-05
1.14843e-05
1.14858e-05
1.14845e-05
1.14845e-05
1.14858e-05
1.14843e-05
1.14839e-05
1.14844e-05
1.14849e-05
1.14851e-05
1.1485e-05
1.14844e-05
1.1484e-05
1.14844e-05
1.14847e-05
1.14857e-05
1.14845e-05
1.14856e-05
1.14843e-05
1.14839e-05
1.14844e-05
1.14848e-05
1.14854e-05
1.14847e-05
1.14846e-05
1.1484e-05
1.14844e-05
1.14846e-05
1.14859e-05
1.14845e-05
1.14854e-05
1.14842e-05
1.14839e-05
1.14845e-05
1.14847e-05
1.14857e-05
1.14843e-05
1.14846e-05
1.14848e-05
1.1484e-05
1.14844e-05
1.1486e-05
1.14845e-05
1.14852e-05
1.14841e-05
1.1484e-05
1.14846e-05
1.14846e-05
1.14859e-05
1.14844e-05
1.14844e-05
1.14847e-05
1.14841e-05
1.14844e-05
1.1486e-05
1.14845e-05
1.1485e-05
1.14841e-05
1.1484e-05
1.14848e-05
1.14846e-05
1.1486e-05
1.14845e-05
1.14844e-05
1.14845e-05
1.14842e-05
1.14844e-05
1.1486e-05
1.14846e-05
1.14848e-05
1.1484e-05
1.14841e-05
1.1485e-05
1.14845e-05
1.14846e-05
1.1486e-05
1.14844e-05
1.14843e-05
1.14844e-05
1.14844e-05
1.12268e-05
1.17438e-05
1.14864e-05
1.14818e-05
1.14799e-05
1.14734e-05
1.1463e-05
1.14547e-05
1.14413e-05
1.14255e-05
1.14091e-05
1.13906e-05
1.13695e-05
1.13457e-05
1.13217e-05
1.12953e-05
1.12645e-05
1.12352e-05
1.12036e-05
1.1166e-05
1.11335e-05
1.1094e-05
1.10533e-05
1.10136e-05
1.09696e-05
1.09266e-05
1.08764e-05
1.08329e-05
1.07815e-05
1.07299e-05
1.06795e-05
1.06251e-05
1.05696e-05
1.0514e-05
1.04596e-05
1.04043e-05
1.03452e-05
1.02936e-05
1.0236e-05
1.01793e-05
1.01264e-05
1.00709e-05
1.00148e-05
9.96266e-06
9.90898e-06
9.85714e-06
9.80147e-06
9.75365e-06
9.70235e-06
9.65128e-06
9.60226e-06
9.55485e-06
9.50802e-06
9.45898e-06
9.41535e-06
9.37141e-06
9.32278e-06
9.27949e-06
9.23335e-06
9.18728e-06
9.13756e-06
9.09337e-06
9.04508e-06
8.9954e-06
8.9478e-06
8.89877e-06
8.84758e-06
8.79932e-06
8.74807e-06
8.69799e-06
8.64351e-06
8.59347e-06
8.54082e-06
8.48803e-06
8.43106e-06
8.38027e-06
8.32424e-06
8.26759e-06
8.21305e-06
8.15936e-06
8.10635e-06
8.05835e-06
8.01221e-06
7.96881e-06
7.92396e-06
7.88856e-06
7.85211e-06
7.81807e-06
7.78742e-06
7.76126e-06
7.73535e-06
7.7149e-06
7.69391e-06
7.68007e-06
7.66695e-06
7.65588e-06
7.65309e-06
7.64851e-06
7.64571e-06
7.65161e-06
7.65306e-06
7.66372e-06
7.66925e-06
7.68142e-06
7.68904e-06
7.69666e-06
7.70194e-06
7.70412e-06
7.70607e-06
7.70679e-06
7.70741e-06
7.70481e-06
7.70504e-06
7.70339e-06
7.70267e-06
7.7008e-06
7.70097e-06
7.69976e-06
7.70048e-06
7.70034e-06
7.70094e-06
7.70039e-06
7.70188e-06
7.8272e-06
7.82691e-06
7.82648e-06
7.82613e-06
7.82594e-06
7.82603e-06
7.82641e-06
7.82715e-06
7.82813e-06
7.82924e-06
7.8306e-06
7.83147e-06
7.83287e-06
7.83228e-06
7.83274e-06
7.82985e-06
7.82787e-06
7.82222e-06
7.81562e-06
7.80682e-06
7.7953e-06
7.78926e-06
7.77849e-06
7.77658e-06
7.77293e-06
7.77342e-06
7.77875e-06
7.7817e-06
7.79389e-06
7.80606e-06
7.82125e-06
7.84226e-06
7.8626e-06
7.88816e-06
7.91768e-06
7.94674e-06
7.98141e-06
8.01839e-06
8.05672e-06
8.09917e-06
8.14416e-06
8.19153e-06
8.24112e-06
8.29347e-06
8.34889e-06
8.40482e-06
8.46084e-06
8.51764e-06
8.57208e-06
8.62745e-06
8.68134e-06
8.73452e-06
8.78792e-06
8.84038e-06
8.89196e-06
8.94414e-06
8.99463e-06
9.04475e-06
9.09528e-06
9.1443e-06
9.19359e-06
9.24217e-06
9.29003e-06
9.33799e-06
9.38517e-06
9.43163e-06
9.47828e-06
9.5246e-06
9.56987e-06
9.61671e-06
9.66353e-06
9.71144e-06
9.76101e-06
9.81038e-06
9.86166e-06
9.91302e-06
9.96463e-06
1.00189e-05
1.00715e-05
1.01259e-05
1.01814e-05
1.02355e-05
1.02924e-05
1.03481e-05
1.04032e-05
1.04618e-05
1.05169e-05
1.05745e-05
1.06311e-05
1.06861e-05
1.07444e-05
1.07984e-05
1.0854e-05
1.09069e-05
1.09577e-05
1.10095e-05
1.10559e-05
1.11051e-05
1.11491e-05
1.11933e-05
1.12354e-05
1.12749e-05
1.13147e-05
1.13498e-05
1.13866e-05
1.14182e-05
1.14503e-05
1.14791e-05
1.15063e-05
1.1532e-05
1.15548e-05
1.15767e-05
1.15953e-05
1.16126e-05
1.16279e-05
1.16418e-05
1.16503e-05
1.16609e-05
1.16674e-05
1.16694e-05
1.1674e-05
1.19351e-05
1.14108e-05
1.1672e-05
1.1672e-05
1.16719e-05
1.1672e-05
1.16736e-05
1.16722e-05
1.16721e-05
1.16727e-05
1.16717e-05
1.16716e-05
1.16724e-05
1.16722e-05
1.16736e-05
1.1672e-05
1.16718e-05
1.16721e-05
1.1672e-05
1.16721e-05
1.16736e-05
1.16722e-05
1.16724e-05
1.16716e-05
1.16717e-05
1.16726e-05
1.16721e-05
1.16737e-05
1.1672e-05
1.16717e-05
1.16723e-05
1.1672e-05
1.1672e-05
1.16735e-05
1.16722e-05
1.16722e-05
1.16716e-05
1.16717e-05
1.16728e-05
1.16721e-05
1.16736e-05
1.1672e-05
1.16716e-05
1.16724e-05
1.16722e-05
1.16719e-05
1.16733e-05
1.16723e-05
1.16721e-05
1.16715e-05
1.16718e-05
1.1673e-05
1.16721e-05
1.16735e-05
1.16722e-05
1.1672e-05
1.16716e-05
1.16721e-05
1.16723e-05
1.1673e-05
1.16724e-05
1.1672e-05
1.16715e-05
1.16719e-05
1.16732e-05
1.16721e-05
1.16734e-05
1.16723e-05
1.1672e-05
1.16716e-05
1.1672e-05
1.16726e-05
1.16727e-05
1.16725e-05
1.1672e-05
1.16715e-05
1.16719e-05
1.16734e-05
1.16721e-05
1.16721e-05
1.16734e-05
1.16719e-05
1.16715e-05
1.1672e-05
1.16725e-05
1.16727e-05
1.16726e-05
1.1672e-05
1.16716e-05
1.1672e-05
1.16723e-05
1.16734e-05
1.16721e-05
1.16732e-05
1.16719e-05
1.16715e-05
1.1672e-05
1.16724e-05
1.1673e-05
1.16723e-05
1.16721e-05
1.16716e-05
1.1672e-05
1.16722e-05
1.16735e-05
1.16721e-05
1.1673e-05
1.16718e-05
1.16715e-05
1.16721e-05
1.16723e-05
1.16733e-05
1.16719e-05
1.16722e-05
1.16724e-05
1.16716e-05
1.1672e-05
1.16736e-05
1.16721e-05
1.16728e-05
1.16717e-05
1.16716e-05
1.16722e-05
1.16722e-05
1.16735e-05
1.1672e-05
1.1672e-05
1.16723e-05
1.16717e-05
1.1672e-05
1.16737e-05
1.16721e-05
1.16726e-05
1.16717e-05
1.16716e-05
1.16724e-05
1.16722e-05
1.16736e-05
1.16721e-05
1.16719e-05
1.16721e-05
1.16718e-05
1.1672e-05
1.16736e-05
1.16722e-05
1.16724e-05
1.16716e-05
1.16717e-05
1.16727e-05
1.16721e-05
1.16722e-05
1.16736e-05
1.1672e-05
1.16719e-05
1.1672e-05
1.1672e-05
1.14108e-05
1.19351e-05
1.1674e-05
1.16694e-05
1.16674e-05
1.16609e-05
1.16503e-05
1.16418e-05
1.16282e-05
1.16121e-05
1.15955e-05
1.15767e-05
1.15553e-05
1.15311e-05
1.15068e-05
1.148e-05
1.14487e-05
1.14189e-05
1.13868e-05
1.13487e-05
1.13156e-05
1.12755e-05
1.12342e-05
1.11939e-05
1.11492e-05
1.11055e-05
1.10546e-05
1.10104e-05
1.09581e-05
1.09058e-05
1.08546e-05
1.07993e-05
1.0743e-05
1.06865e-05
1.06313e-05
1.05751e-05
1.05151e-05
1.04627e-05
1.04042e-05
1.03466e-05
1.02929e-05
1.02365e-05
1.01795e-05
1.01265e-05
1.0072e-05
1.00193e-05
9.96279e-06
9.91419e-06
9.86207e-06
9.81018e-06
9.76037e-06
9.7122e-06
9.6646e-06
9.61477e-06
9.57043e-06
9.52577e-06
9.47635e-06
9.43235e-06
9.38546e-06
9.33863e-06
9.28811e-06
9.2432e-06
9.19412e-06
9.14365e-06
9.09528e-06
9.04545e-06
8.99343e-06
8.94439e-06
8.89232e-06
8.84142e-06
8.78606e-06
8.73521e-06
8.68172e-06
8.62808e-06
8.5702e-06
8.51858e-06
8.46166e-06
8.4041e-06
8.34869e-06
8.29412e-06
8.24025e-06
8.19147e-06
8.14457e-06
8.10044e-06
8.05485e-06
8.01886e-06
7.98178e-06
7.94715e-06
7.91597e-06
7.88933e-06
7.86296e-06
7.84212e-06
7.82073e-06
7.80661e-06
7.79321e-06
7.7819e-06
7.77898e-06
7.77425e-06
7.77133e-06
7.77724e-06
7.77865e-06
7.78939e-06
7.79494e-06
7.80723e-06
7.81491e-06
7.8226e-06
7.82791e-06
7.83008e-06
7.83203e-06
7.83274e-06
7.83334e-06
7.8307e-06
7.83092e-06
7.82923e-06
7.82849e-06
7.82659e-06
7.82676e-06
7.82554e-06
7.82627e-06
7.82612e-06
7.82673e-06
7.82618e-06
7.82768e-06
7.95505e-06
7.95475e-06
7.95432e-06
7.95396e-06
7.95376e-06
7.95386e-06
7.95424e-06
7.955e-06
7.956e-06
7.95714e-06
7.95853e-06
7.95942e-06
7.96086e-06
7.96028e-06
7.96077e-06
7.95787e-06
7.95589e-06
7.9502e-06
7.94355e-06
7.93468e-06
7.92305e-06
7.91699e-06
7.90613e-06
7.90427e-06
7.90065e-06
7.90122e-06
7.90671e-06
7.9098e-06
7.92225e-06
7.93469e-06
7.95019e-06
7.97159e-06
7.99232e-06
8.01834e-06
8.04838e-06
8.07796e-06
8.11323e-06
8.15084e-06
8.18982e-06
8.23298e-06
8.27872e-06
8.32687e-06
8.37727e-06
8.43047e-06
8.48678e-06
8.54361e-06
8.60053e-06
8.65824e-06
8.71356e-06
8.76982e-06
8.82457e-06
8.87862e-06
8.93287e-06
8.98618e-06
9.03859e-06
9.09161e-06